 ----------------------------------------------------------------------
 # ROMP2(RW) Gen GFinput Int=NoBasisTransform Int(Grid=Ultrafine) IOp(3
 /32=2,5/6=10,8/11=1,9/33=1) Maxdisk=128GB CBSextrapolate(Nmin=25,MinPo
 p)
 ----------------------------------------------------------------------

 99/5=1,9=1/99;
 ---
 As2
 ---
 Charge =  0 Multiplicity = 1

                         Standard orientation:
 ---------------------------------------------------------------------
 Center     Atomic      Atomic             Coordinates (Angstroms)
 Number     Number       Type             X           Y           Z
 ---------------------------------------------------------------------
      1         33           0        0.000000    0.000000    1.051300
      2         33           0        0.000000    0.000000   -1.051300
 ---------------------------------------------------------------------

 SCF Done:  E(ROHF) =  -4468.49907656     A.U. after   14 cycles
 E2 =    -0.2897766884D+00 EUMP2 =    -0.44687888532489D+04
 E2(CBS)=      -0.295771 CBS-Int=       0.003411 OIii=       1.278056

 The electronic state is 1-SGG.
 Alpha  occ. eigenvalues -- -432.59881-432.59881 -56.32229 -56.32228 -50.16690
 Alpha  occ. eigenvalues --  -50.16690 -50.16690 -50.16690 -50.16571 -50.16571
 Alpha  occ. eigenvalues --   -8.04292  -8.04265  -5.89572  -5.89572  -5.89553
 Alpha  occ. eigenvalues --   -5.89553  -5.89342  -5.89201  -2.13220  -2.13004
 Alpha  occ. eigenvalues --   -2.13004  -2.12902  -2.12902  -2.12810  -2.12810
 Alpha  occ. eigenvalues --   -2.12223  -2.12223  -2.11761  -0.86045  -0.60908
 Alpha  occ. eigenvalues --   -0.38014  -0.34176  -0.34176
 Alpha virt. eigenvalues --    0.00148   0.00148   0.03995   0.05265   0.06511
 Alpha virt. eigenvalues --    0.06511   0.07593   0.08330   0.08330   0.13411
 Alpha virt. eigenvalues --    0.13498   0.13498   0.16519   0.18580   0.18580

 Mulliken charges and spin densities:
              1          2
     1  As   0.000000   0.000000
     2  As   0.000000   0.000000
 Sum of Mulliken charges =   0.00000 spin densities =   0.000000

 Dipole moment (field-independent basis, Debye):
    X=              0.0000    Y=              0.0000    Z=              0.0000  Tot=              0.0000
 Quadrupole moment (field-independent basis, Debye-Ang):
   XX=            -36.7295   YY=            -36.7295   ZZ=            -34.7766
   XY=              0.0000   XZ=              0.0000   YZ=              0.0000

 Normal termination of Gaussian DV at Tue Jun  4 10:21:51 2013.
