 Gaussian 09, Revision A.02,
 Gaussian 09:  EM64L-G09RevA.02 11-Jun-2009

 ----------------------------------------------------------------------
 # ROMP2(RW) Gen GFinput Int=NoBasisTransform Int(Grid=Ultrafine) IOp(3
 /32=2,5/6=10,8/11=1,9/33=1) Maxdisk=128GB CBSextrapolate(Nmin=20,MinPo
 p)
 ----------------------------------------------------------------------

 ---
 As2
 ---
 Symbolic Z-matrix:
 Charge =  0 Multiplicity = 1

                         Standard orientation:
 ---------------------------------------------------------------------
 Center     Atomic      Atomic             Coordinates (Angstroms)
 Number     Number       Type             X           Y           Z
 ---------------------------------------------------------------------
      1         33           0        0.000000    0.000000    1.051300
      2         33           0        0.000000    0.000000   -1.051300
 ---------------------------------------------------------------------

 SCF Done:  E(ROHF) =  -4468.49895262     A.U. after   15 cycles
 E2 =    -0.2874834968D+00 EUMP2 =    -0.44687864361134D+04
 E2(CBS)=      -0.296428 CBS-Int=       0.004940 OIii=       1.381840

 The electronic state is 1-SGG.
 Alpha  occ. eigenvalues -- -432.59871-432.59871 -56.32225 -56.32224 -50.16688
 Alpha  occ. eigenvalues --  -50.16688 -50.16688 -50.16688 -50.16559 -50.16559
 Alpha  occ. eigenvalues --   -8.04295  -8.04269  -5.89583  -5.89583  -5.89564
 Alpha  occ. eigenvalues --   -5.89564  -5.89330  -5.89189  -2.13210  -2.13020
 Alpha  occ. eigenvalues --   -2.13020  -2.12918  -2.12918  -2.12807  -2.12807
 Alpha  occ. eigenvalues --   -2.12220  -2.12220  -2.11753  -0.86055  -0.60904
 Alpha  occ. eigenvalues --   -0.38007  -0.34181  -0.34181
 Alpha virt. eigenvalues --    0.00136   0.00136   0.03344   0.04577   0.05101
 Alpha virt. eigenvalues --    0.05101   0.06633   0.07243   0.07243   0.10636
 Alpha virt. eigenvalues --    0.14596   0.14596   0.15449   0.19129   0.19129

 Mulliken atomic charges:
              1
     1  As   0.000000
     2  As   0.000000
 Sum of Mulliken atomic charges =   0.00000

 Dipole moment (field-independent basis, Debye):
    X=              0.0000    Y=              0.0000    Z=              0.0000  Tot=              0.0000
 Quadrupole moment (field-independent basis, Debye-Ang):
   XX=            -36.7316   YY=            -36.7316   ZZ=            -34.7777
   XY=              0.0000   XZ=              0.0000   YZ=              0.0000

 Normal termination of Gaussian 09 at Mon Jun  3 13:55:16 2013.
