 Gaussian 09, Revision A.02,
 Gaussian 09:  EM64L-G09RevA.02 11-Jun-2009

 ----------------------------------------------------------------------
 # ROMP2(RW) Gen GFinput Int=NoBasisTransform Int(Grid=Ultrafine) IOp(3
 /32=2,5/6=10,8/11=1,9/33=1) Maxdisk=128GB CBSextrapolate(Nmin=20,MinPo
 p)
 ----------------------------------------------------------------------

 ---
 As2
 ---
 Symbolic Z-matrix:
 Charge =  0 Multiplicity = 1

                         Standard orientation:
 ---------------------------------------------------------------------
 Center     Atomic      Atomic             Coordinates (Angstroms)
 Number     Number       Type             X           Y           Z
 ---------------------------------------------------------------------
      1         33           0        0.000000    0.000000    1.051300
      2         33           0        0.000000    0.000000   -1.051300
 ---------------------------------------------------------------------

 SCF Done:  E(ROHF) =  -4468.49891906     A.U. after   15 cycles
 E2 =    -0.2870297454D+00 EUMP2 =    -0.44687859488074D+04
 E2(CBS)=      -0.296370 CBS-Int=       0.005076 OIii=       1.433527

 The electronic state is 1-SGG.
 Alpha  occ. eigenvalues -- -432.59869-432.59869 -56.32223 -56.32222 -50.16686
 Alpha  occ. eigenvalues --  -50.16686 -50.16685 -50.16685 -50.16557 -50.16557
 Alpha  occ. eigenvalues --   -8.04293  -8.04267  -5.89581  -5.89581  -5.89563
 Alpha  occ. eigenvalues --   -5.89563  -5.89328  -5.89188  -2.13208  -2.13018
 Alpha  occ. eigenvalues --   -2.13018  -2.12916  -2.12916  -2.12806  -2.12806
 Alpha  occ. eigenvalues --   -2.12219  -2.12219  -2.11751  -0.86056  -0.60902
 Alpha  occ. eigenvalues --   -0.38005  -0.34180  -0.34180
 Alpha virt. eigenvalues --    0.00133   0.00133   0.03594   0.04780   0.05105
 Alpha virt. eigenvalues --    0.05105   0.06968   0.07362   0.07362   0.12455
 Alpha virt. eigenvalues --    0.15646   0.20840   0.21338   0.21338   0.22168

 Mulliken atomic charges:
              1
     1  As   0.000000
     2  As   0.000000
 Sum of Mulliken atomic charges =   0.00000

 Dipole moment (field-independent basis, Debye):
    X=              0.0000    Y=              0.0000    Z=              0.0000  Tot=              0.0000
 Quadrupole moment (field-independent basis, Debye-Ang):
   XX=            -36.7153   YY=            -36.7153   ZZ=            -34.8317
   XY=              0.0000   XZ=              0.0000   YZ=              0.0000

 Normal termination of Gaussian 09 at Tue Aug 21 00:05:12 2012.
