 Gaussian 09, Revision A.02,
 Gaussian 09:  EM64L-G09RevA.02 11-Jun-2009

 ----------------------------------------------------------------------
 # ROMP2(RW) Gen GFinput Int=NoBasisTransform Int(Grid=Ultrafine) IOp(3
 /32=2,5/6=10,8/11=1,9/33=1) Maxdisk=128GB CBSextrapolate(Nmin=25,MinPo
 p)
 ----------------------------------------------------------------------

 ---
 As2
 ---
 Symbolic Z-matrix:
 Charge =  0 Multiplicity = 1

                         Standard orientation:
 ---------------------------------------------------------------------
 Center     Atomic      Atomic             Coordinates (Angstroms)
 Number     Number       Type             X           Y           Z
 ---------------------------------------------------------------------
      1         33           0        0.000000    0.000000    1.051300
      2         33           0        0.000000    0.000000   -1.051300
 ---------------------------------------------------------------------

 SCF Done:  E(ROHF) =  -4468.49905812     A.U. after   16 cycles
 E2 =    -0.2893763181D+00 EUMP2 =    -0.44687884344394D+04
 E2(CBS)=      -0.295710 CBS-Int=       0.003571 OIii=       1.325761

 The electronic state is 1-SGG.
 Alpha  occ. eigenvalues -- -432.59880-432.59880 -56.32227 -56.32227 -50.16688
 Alpha  occ. eigenvalues --  -50.16688 -50.16688 -50.16688 -50.16569 -50.16569
 Alpha  occ. eigenvalues --   -8.04290  -8.04264  -5.89570  -5.89570  -5.89552
 Alpha  occ. eigenvalues --   -5.89552  -5.89340  -5.89199  -2.13218  -2.13003
 Alpha  occ. eigenvalues --   -2.13003  -2.12901  -2.12901  -2.12808  -2.12808
 Alpha  occ. eigenvalues --   -2.12221  -2.12221  -2.11759  -0.86045  -0.60907
 Alpha  occ. eigenvalues --   -0.38012  -0.34176  -0.34176
 Alpha virt. eigenvalues --    0.00148   0.00148   0.04252   0.05870   0.06546
 Alpha virt. eigenvalues --    0.06546   0.08196   0.09419   0.09419   0.14426
 Alpha virt. eigenvalues --    0.17949   0.20963   0.20963   0.25871   0.25871

 Mulliken atomic charges:
              1
     1  As   0.000000
     2  As   0.000000
 Sum of Mulliken atomic charges =   0.00000

 Dipole moment (field-independent basis, Debye):
    X=              0.0000    Y=              0.0000    Z=              0.0000  Tot=              0.0000
 Quadrupole moment (field-independent basis, Debye-Ang):
   XX=            -36.7169   YY=            -36.7169   ZZ=            -34.8148
   XY=              0.0000   XZ=              0.0000   YZ=              0.0000

 Normal termination of Gaussian 09 at Tue Aug 21 17:03:10 2012.
