 Gaussian 09, Revision A.02,
 Gaussian 09:  EM64L-G09RevA.02 11-Jun-2009

 ----------------------------------------------------------------------
 # ROMP2(RW) Gen GFinput Int=NoBasisTransform Int(Grid=Ultrafine) IOp(3
 /32=2,5/6=10,8/11=1,9/33=1) Maxdisk=128GB CBSextrapolate(Nmin=25,MinPo
 p)
 ----------------------------------------------------------------------

 ----
 AsH3
 ----
 Symbolic Z-matrix:
 Charge =  0 Multiplicity = 1

                         Standard orientation:
 ---------------------------------------------------------------------
 Center     Atomic      Atomic             Coordinates (Angstroms)
 Number     Number       Type             X           Y           Z
 ---------------------------------------------------------------------
      1         33           0        0.000000    0.000000    0.069919
      2          1           0        0.000000    1.271147   -0.769105
      3          1           0        1.100846   -0.635574   -0.769105
      4          1           0       -1.100846   -0.635574   -0.769105
 ---------------------------------------------------------------------

 SCF Done:  E(ROHF) =  -2235.97796603     A.U. after   15 cycles
 E2 =    -0.1762166554D+00 EUMP2 =    -0.22361541826884D+04
 E2(CBS)=      -0.179122 CBS-Int=       0.001515 OIii=       1.214739

 The electronic state is 1-A1.
 Alpha  occ. eigenvalues -- -432.57394 -56.29777 -50.14266 -50.14266 -50.14208
 Alpha  occ. eigenvalues --   -8.01951  -5.87380  -5.87380  -5.87078  -2.10816
 Alpha  occ. eigenvalues --   -2.10816  -2.10397  -2.10397  -2.10128  -0.82932
 Alpha  occ. eigenvalues --   -0.49570  -0.49570  -0.38107
 Alpha virt. eigenvalues --    0.01201   0.02002   0.02002   0.05513   0.06345
 Alpha virt. eigenvalues --    0.07127   0.07127   0.08098   0.08098   0.15286
 Alpha virt. eigenvalues --    0.15286   0.16249   0.19453   0.22682   0.22682

 Mulliken atomic charges:
              1
     1  As   0.201614
     2  H   -0.067205
     3  H   -0.067205
     4  H   -0.067205
 Sum of Mulliken atomic charges =   0.00000

 Dipole moment (field-independent basis, Debye):
    X=              0.0000    Y=              0.0000    Z=             -0.3527  Tot=              0.3527
 Quadrupole moment (field-independent basis, Debye-Ang):
   XX=            -19.9054   YY=            -19.9054   ZZ=            -22.1964
   XY=              0.0000   XZ=              0.0000   YZ=              0.0000

 Normal termination of Gaussian 09 at Tue Aug 21 05:26:44 2012.
