 ----------------------------------------------------------------------
 # ROMP2(RW) Gen GFinput Int=NoBasisTransform Int(Grid=Ultrafine) IOp(3
 /32=2,5/6=10,8/11=1,9/33=1) Maxdisk=128GB CBSextrapolate(Nmin=25,MinPo
 p)
 ----------------------------------------------------------------------

 99/5=1,9=1/99;
 -------
 AsO 2Pi
 -------
 Charge =  0 Multiplicity = 2

                         Standard orientation:
 ---------------------------------------------------------------------
 Center     Atomic      Atomic             Coordinates (Angstroms)
 Number     Number       Type             X           Y           Z
 ---------------------------------------------------------------------
      1         33           0        0.000000    0.000000    0.316800
      2          8           0        0.000000    0.000000   -1.306800
 ---------------------------------------------------------------------

 SCF Done:  E(ROHF) =  -2309.09542787     A.U. after   25 cycles
 E2 =    -0.4144407263D+00 EUMP2 =    -0.23095098685942D+04
 E2(CBS)=      -0.419339 CBS-Int=       0.002236 OIii=       1.965204

 Unable to determine electronic state:  an orbital has unidentified symmetry.
 Alpha  occ. eigenvalues -- -432.64415 -56.36541 -50.21241 -50.21050 -50.20809
 Alpha  occ. eigenvalues --  -20.57034  -8.08946  -5.94569  -5.94399  -5.93639
 Alpha  occ. eigenvalues --   -2.17916  -2.17775  -2.17390  -2.17276  -2.17004
 Alpha  occ. eigenvalues --   -1.29396  -0.75511  -0.55010  -0.51574  -0.48127
 Alpha  occ. eigenvalues --   -0.32412
 Alpha virt. eigenvalues --   -0.01917   0.04001   0.05256   0.05788   0.06265
 Alpha virt. eigenvalues --    0.11881   0.13285   0.13357   0.13592   0.13885
 Alpha virt. eigenvalues --    0.13942   0.19691   0.19907   0.20913   0.25003

 Mulliken charges and spin densities:
              1          2
     1  As   0.584769   0.926223
     2  O   -0.584769   0.073777
 Sum of Mulliken charges =   0.00000 spin densities =   1.000000

 Dipole moment (field-independent basis, Debye):
    X=              0.0000    Y=              0.0000    Z=              3.4076  Tot=              3.4076
 Quadrupole moment (field-independent basis, Debye-Ang):
   XX=            -23.5827   YY=            -20.4134   ZZ=            -27.1293
   XY=              0.0000   XZ=              0.0000   YZ=              0.0000

 Normal termination of Gaussian DV at Mon Jun  3 09:34:42 2013.
