 ----------------------------------------------------------------------
 # ROMP2(RW) Gen GFinput Int=NoBasisTransform Int(Grid=Ultrafine) IOp(3
 /32=2,5/6=10,8/11=1,9/33=1) Maxdisk=128GB CBSextrapolate(Nmin=25,MinPo
 p)
 ----------------------------------------------------------------------

 99/5=1,9=1/99;
 ---
 Br2
 ---
 Charge =  0 Multiplicity = 1

                         Standard orientation:
 ---------------------------------------------------------------------
 Center     Atomic      Atomic             Coordinates (Angstroms)
 Number     Number       Type             X           Y           Z
 ---------------------------------------------------------------------
      1         35           0        0.000000    0.000000    1.140525
      2         35           0        0.000000    0.000000   -1.140525
 ---------------------------------------------------------------------

 SCF Done:  E(ROHF) =  -5144.92276798     A.U. after   14 cycles
 E2 =    -0.3869143063D+00 EUMP2 =    -0.51453096822818D+04
 E2(CBS)=      -0.396916 CBS-Int=       0.004932 OIii=       2.560967

 The electronic state is 1-SGG.
 Alpha  occ. eigenvalues -- -490.07041-490.07041 -65.20965 -65.20964 -58.56539
 Alpha  occ. eigenvalues --  -58.56539 -58.56335 -58.56335 -58.56335 -58.56335
 Alpha  occ. eigenvalues --   -9.88186  -9.88180  -7.49443  -7.49426  -7.48542
 Alpha  occ. eigenvalues --   -7.48542  -7.48540  -7.48540  -3.24013  -3.23771
 Alpha  occ. eigenvalues --   -3.23480  -3.23480  -3.23401  -3.23401  -3.22222
 Alpha  occ. eigenvalues --   -3.22222  -3.22217  -3.22217  -1.10381  -0.94823
 Alpha  occ. eigenvalues --   -0.53514  -0.50659  -0.50659  -0.40607  -0.40607
 Alpha virt. eigenvalues --   -0.00225   0.05615   0.05615   0.05735   0.05759
 Alpha virt. eigenvalues --    0.07392   0.07392   0.08392   0.15318   0.17678
 Alpha virt. eigenvalues --    0.17678   0.21002   0.21181   0.21181   0.23020

 Mulliken charges and spin densities:
              1          2
     1  Br   0.000000   0.000000
     2  Br   0.000000   0.000000
 Sum of Mulliken charges =   0.00000 spin densities =   0.000000

 Dipole moment (field-independent basis, Debye):
    X=              0.0000    Y=              0.0000    Z=              0.0000  Tot=              0.0000
 Quadrupole moment (field-independent basis, Debye-Ang):
   XX=            -37.3263   YY=            -37.3263   ZZ=            -32.8086
   XY=              0.0000   XZ=              0.0000   YZ=              0.0000

 Normal termination of Gaussian DV at Tue Apr 30 03:13:20 2013.
