 Gaussian 09, Revision A.02,
 Gaussian 09:  EM64L-G09RevA.02 11-Jun-2009

 ----------------------------------------------------------------------
 # ROMP2(RW) Gen GFinput Int=NoBasisTransform Int(Grid=Ultrafine) IOp(3
 /32=2,5/6=10,8/11=1,9/33=1) Maxdisk=128GB CBSextrapolate(Nmin=25,MinPo
 p)
 ----------------------------------------------------------------------

 ---
 Br2
 ---
 Symbolic Z-matrix:
 Charge =  0 Multiplicity = 1

                         Standard orientation:
 ---------------------------------------------------------------------
 Center     Atomic      Atomic             Coordinates (Angstroms)
 Number     Number       Type             X           Y           Z
 ---------------------------------------------------------------------
      1         35           0        0.000000    0.000000    1.140525
      2         35           0        0.000000    0.000000   -1.140525
 ---------------------------------------------------------------------

 SCF Done:  E(ROHF) =  -5144.92276345     A.U. after   13 cycles
 E2 =    -0.3863766918D+00 EUMP2 =    -0.51453091401428D+04
 E2(CBS)=      -0.396873 CBS-Int=       0.005093 OIii=       2.625626

 The electronic state is 1-SGG.
 Alpha  occ. eigenvalues -- -490.07039-490.07039 -65.20964 -65.20964 -58.56539
 Alpha  occ. eigenvalues --  -58.56539 -58.56335 -58.56335 -58.56335 -58.56335
 Alpha  occ. eigenvalues --   -9.88186  -9.88180  -7.49443  -7.49426  -7.48541
 Alpha  occ. eigenvalues --   -7.48541  -7.48540  -7.48540  -3.24013  -3.23771
 Alpha  occ. eigenvalues --   -3.23480  -3.23480  -3.23401  -3.23401  -3.22222
 Alpha  occ. eigenvalues --   -3.22222  -3.22217  -3.22217  -1.10380  -0.94823
 Alpha  occ. eigenvalues --   -0.53514  -0.50659  -0.50659  -0.40607  -0.40607
 Alpha virt. eigenvalues --   -0.00219   0.05624   0.05624   0.05863   0.06298
 Alpha virt. eigenvalues --    0.07445   0.07445   0.08704   0.18524   0.21858
 Alpha virt. eigenvalues --    0.22532   0.22532   0.23726   0.24994   0.24994

 Mulliken atomic charges:
              1
     1  Br   0.000000
     2  Br   0.000000
 Sum of Mulliken atomic charges =   0.00000

 Dipole moment (field-independent basis, Debye):
    X=              0.0000    Y=              0.0000    Z=              0.0000  Tot=              0.0000
 Quadrupole moment (field-independent basis, Debye-Ang):
   XX=            -37.3288   YY=            -37.3288   ZZ=            -32.7987
   XY=              0.0000   XZ=              0.0000   YZ=              0.0000

 Normal termination of Gaussian 09 at Wed Aug 15 00:34:08 2012.
