 Gaussian 09, Revision A.02,
 Gaussian 09:  EM64L-G09RevA.02 11-Jun-2009

 ----------------------------------------------------------------------
 # ROMP2(RW) Gen GFinput Int=NoBasisTransform Int(Grid=Ultrafine) IOp(3
 /32=2,5/6=10,8/11=1,9/33=1) Maxdisk=128GB CBSextrapolate(Nmin=20,MinPo
 p)
 ----------------------------------------------------------------------

 ---
 Br2
 ---
 Symbolic Z-matrix:
 Charge =  0 Multiplicity = 1

                         Standard orientation:
 ---------------------------------------------------------------------
 Center     Atomic      Atomic             Coordinates (Angstroms)
 Number     Number       Type             X           Y           Z
 ---------------------------------------------------------------------
      1         35           0        0.000000    0.000000    1.140525
      2         35           0        0.000000    0.000000   -1.140525
 ---------------------------------------------------------------------

 SCF Done:  E(ROHF) =  -5144.92251713     A.U. after   14 cycles
 E2 =    -0.3819686098D+00 EUMP2 =    -0.51453044857359D+04
 E2(CBS)=      -0.397392 CBS-Int=       0.007116 OIii=       2.787042

 The electronic state is 1-SGG.
 Alpha  occ. eigenvalues -- -490.07035-490.07035 -65.20965 -65.20965 -58.56552
 Alpha  occ. eigenvalues --  -58.56552 -58.56328 -58.56328 -58.56328 -58.56328
 Alpha  occ. eigenvalues --   -9.88191  -9.88185  -7.49476  -7.49460  -7.48530
 Alpha  occ. eigenvalues --   -7.48530  -7.48528  -7.48528  -3.24039  -3.23797
 Alpha  occ. eigenvalues --   -3.23494  -3.23494  -3.23415  -3.23415  -3.22202
 Alpha  occ. eigenvalues --   -3.22202  -3.22197  -3.22197  -1.10398  -0.94815
 Alpha  occ. eigenvalues --   -0.53511  -0.50659  -0.50659  -0.40602  -0.40602
 Alpha virt. eigenvalues --   -0.00232   0.06027   0.06076   0.06148   0.06148
 Alpha virt. eigenvalues --    0.08083   0.08083   0.08516   0.17588   0.24011
 Alpha virt. eigenvalues --    0.25039   0.25039   0.25770   0.27646   0.27646

 Mulliken atomic charges:
              1
     1  Br   0.000000
     2  Br   0.000000
 Sum of Mulliken atomic charges =   0.00000

 Dipole moment (field-independent basis, Debye):
    X=              0.0000    Y=              0.0000    Z=              0.0000  Tot=              0.0000
 Quadrupole moment (field-independent basis, Debye-Ang):
   XX=            -37.3329   YY=            -37.3329   ZZ=            -32.7881
   XY=              0.0000   XZ=              0.0000   YZ=              0.0000

 Normal termination of Gaussian 09 at Wed Jul 25 13:04:05 2012.
