 Gaussian 09, Revision A.02,
 Gaussian 09:  EM64L-G09RevA.02 11-Jun-2009

 ----------------------------------------------------------------------
 # ROMP2(RW) Gen GFinput Int=NoBasisTransform Int(Grid=Ultrafine) IOp(3
 /32=2,5/6=10,8/11=1,9/33=1) Maxdisk=128GB CBSextrapolate(Nmin=20,MinPo
 p)
 ----------------------------------------------------------------------

 ---
 Br2
 ---
 Symbolic Z-matrix:
 Charge =  0 Multiplicity = 1

                         Standard orientation:
 ---------------------------------------------------------------------
 Center     Atomic      Atomic             Coordinates (Angstroms)
 Number     Number       Type             X           Y           Z
 ---------------------------------------------------------------------
      1         35           0        0.000000    0.000000    1.140525
      2         35           0        0.000000    0.000000   -1.140525
 ---------------------------------------------------------------------

 SCF Done:  E(ROHF) =  -5144.92252836     A.U. after   14 cycles
 E2 =    -0.3826664812D+00 EUMP2 =    -0.51453051948452D+04
 E2(CBS)=      -0.397474 CBS-Int=       0.006961 OIii=       2.720300

 The electronic state is 1-SGG.
 Alpha  occ. eigenvalues -- -490.07036-490.07036 -65.20967 -65.20967 -58.56554
 Alpha  occ. eigenvalues --  -58.56554 -58.56330 -58.56330 -58.56330 -58.56330
 Alpha  occ. eigenvalues --   -9.88192  -9.88186  -7.49476  -7.49460  -7.48531
 Alpha  occ. eigenvalues --   -7.48531  -7.48530  -7.48530  -3.24039  -3.23797
 Alpha  occ. eigenvalues --   -3.23495  -3.23495  -3.23416  -3.23416  -3.22204
 Alpha  occ. eigenvalues --   -3.22204  -3.22199  -3.22199  -1.10398  -0.94816
 Alpha  occ. eigenvalues --   -0.53512  -0.50660  -0.50660  -0.40603  -0.40603
 Alpha virt. eigenvalues --   -0.00232   0.06017   0.06143   0.06143   0.06578
 Alpha virt. eigenvalues --    0.08056   0.08056   0.09132   0.16195   0.18955
 Alpha virt. eigenvalues --    0.18955   0.22633   0.22633   0.23181   0.25378

 Mulliken atomic charges:
              1
     1  Br   0.000000
     2  Br   0.000000
 Sum of Mulliken atomic charges =   0.00000

 Dipole moment (field-independent basis, Debye):
    X=              0.0000    Y=              0.0000    Z=              0.0000  Tot=              0.0000
 Quadrupole moment (field-independent basis, Debye-Ang):
   XX=            -37.3283   YY=            -37.3283   ZZ=            -32.8073
   XY=              0.0000   XZ=              0.0000   YZ=              0.0000

 Normal termination of Gaussian 09 at Sun Jul  7 13:22:53 2013.
