 Gaussian 09, Revision A.02,
 Gaussian 09:  EM64L-G09RevA.02 11-Jun-2009

 ----------------------------------------------------------------------
 # ROMP2(RW) Gen GFinput Int=NoBasisTransform Int(Grid=Ultrafine) IOp(3
 /32=2,5/6=10,8/11=1,9/33=1) Maxdisk=128GB CBSextrapolate(Nmin=20,MinPo
 p)
 ----------------------------------------------------------------------

 ---------
 BrCl 1Sg+
 ---------
 Symbolic Z-matrix:
 Charge =  0 Multiplicity = 1

                         Standard orientation:
 ---------------------------------------------------------------------
 Center     Atomic      Atomic             Coordinates (Angstroms)
 Number     Number       Type             X           Y           Z
 ---------------------------------------------------------------------
      1         35           0        0.000000    0.000000    0.698329
      2         17           0        0.000000    0.000000   -1.437736
 ---------------------------------------------------------------------

 SCF Done:  E(ROHF) =  -3031.96694256     A.U. after   16 cycles
 E2 =    -0.4141067833D+00 EUMP2 =    -0.30323810493384D+04
 E2(CBS)=      -0.428439 CBS-Int=       0.006675 OIii=       2.754285

 The electronic state is 1-SG.
 Alpha  occ. eigenvalues -- -490.08058-104.88461 -65.21955 -58.57557 -58.57311
 Alpha  occ. eigenvalues --  -58.57311 -10.60720  -9.89172  -8.07400  -8.07192
 Alpha  occ. eigenvalues --   -8.07192  -7.50495  -7.49478  -7.49478  -3.24989
 Alpha  occ. eigenvalues --   -3.24475  -3.24475  -3.23106  -3.23106  -1.16479
 Alpha  occ. eigenvalues --   -0.97508  -0.56534  -0.53944  -0.53944  -0.42186
 Alpha  occ. eigenvalues --   -0.42186
 Alpha virt. eigenvalues --    0.00937   0.06262   0.06262   0.06554   0.07512
 Alpha virt. eigenvalues --    0.12395   0.14149   0.14149   0.20183   0.20183
 Alpha virt. eigenvalues --    0.23748   0.23748   0.24393   0.26326   0.26390

 Mulliken atomic charges:
              1
     1  Br   0.189441
     2  Cl  -0.189441
 Sum of Mulliken atomic charges =   0.00000

 Dipole moment (field-independent basis, Debye):
    X=              0.0000    Y=              0.0000    Z=              0.5012  Tot=              0.5012
 Quadrupole moment (field-independent basis, Debye-Ang):
   XX=            -31.3833   YY=            -31.3833   ZZ=            -27.9679
   XY=              0.0000   XZ=              0.0000   YZ=              0.0000

 Normal termination of Gaussian 09 at Mon Jul  8 13:06:41 2013.
