 ----------------------------------------------------------------------
 # ROMP2(RW) Gen GFinput Int=NoBasisTransform Int(Grid=Ultrafine) IOp(3
 /32=2,5/6=10,8/11=1,9/33=1) Maxdisk=128GB CBSextrapolate(Nmin=25,MinPo
 p)
 ----------------------------------------------------------------------

 99/5=1,9=1/99;
 ---------
 BrCl 1Sg+
 ---------
 Charge =  0 Multiplicity = 1

                         Standard orientation:
 ---------------------------------------------------------------------
 Center     Atomic      Atomic             Coordinates (Angstroms)
 Number     Number       Type             X           Y           Z
 ---------------------------------------------------------------------
      1         35           0        0.000000    0.000000    0.698329
      2         17           0        0.000000    0.000000   -1.437736
 ---------------------------------------------------------------------

 SCF Done:  E(ROHF) =  -3031.96710939     A.U. after   16 cycles
 E2 =    -0.4183681208D+00 EUMP2 =    -0.30323854775099D+04
 E2(CBS)=      -0.427921 CBS-Int=       0.004664 OIii=       2.601346

 The electronic state is 1-SG.
 Alpha  occ. eigenvalues -- -490.08070-104.88450 -65.21960 -58.57548 -58.57324
 Alpha  occ. eigenvalues --  -58.57324 -10.60714  -9.89171  -8.07388  -8.07188
 Alpha  occ. eigenvalues --   -8.07188  -7.50464  -7.49495  -7.49495  -3.24966
 Alpha  occ. eigenvalues --   -3.24465  -3.24465  -3.23131  -3.23131  -1.16468
 Alpha  occ. eigenvalues --   -0.97511  -0.56536  -0.53942  -0.53942  -0.42190
 Alpha  occ. eigenvalues --   -0.42190
 Alpha virt. eigenvalues --    0.00916   0.05677   0.05718   0.05718   0.07184
 Alpha virt. eigenvalues --    0.11511   0.12962   0.12962   0.18825   0.18825
 Alpha virt. eigenvalues --    0.21913   0.21933   0.21933   0.24339   0.24339

 Mulliken charges and spin densities:
              1          2
     1  Br   0.229902   0.000000
     2  Cl  -0.229902   0.000000
 Sum of Mulliken charges =   0.00000 spin densities =   0.000000

 Dipole moment (field-independent basis, Debye):
    X=              0.0000    Y=              0.0000    Z=              0.5033  Tot=              0.5033
 Quadrupole moment (field-independent basis, Debye-Ang):
   XX=            -31.3829   YY=            -31.3829   ZZ=            -27.9679
   XY=              0.0000   XZ=              0.0000   YZ=              0.0000

 Normal termination of Gaussian DV at Tue May 21 20:53:09 2013.
