 ----------------------------------------------------------------------
 # ROMP2(RW) Gen GFinput Int=NoBasisTransform Int(Grid=Ultrafine) IOp(3
 /32=2,5/6=10,8/11=1,9/33=1) Maxdisk=128GB CBSextrapolate(Nmin=25,MinPo
 p)
 ----------------------------------------------------------------------

 99/5=1,9=1/99;
 --------
 BrF 1Sg+
 --------
 Charge =  0 Multiplicity = 1

                         Standard orientation:
 ---------------------------------------------------------------------
 Center     Atomic      Atomic             Coordinates (Angstroms)
 Number     Number       Type             X           Y           Z
 ---------------------------------------------------------------------
      1         35           0        0.000000    0.000000    0.359783
      2          9           0        0.000000    0.000000   -1.399157
 ---------------------------------------------------------------------

 SCF Done:  E(ROHF) =  -2671.88277828     A.U. after   15 cycles
 E2 =    -0.4934889004D+00 EUMP2 =    -0.26723762671800D+04
 E2(CBS)=      -0.501521 CBS-Int=       0.003510 OIii=       3.129786

 The electronic state is 1-SG.
 Alpha  occ. eigenvalues -- -490.10916 -65.24667 -58.60301 -58.60011 -58.60011
 Alpha  occ. eigenvalues --  -26.32872  -9.91818  -7.53230  -7.52028  -7.52028
 Alpha  occ. eigenvalues --   -3.27888  -3.27225  -3.27225  -3.25535  -3.25535
 Alpha  occ. eigenvalues --   -1.60360  -1.03152  -0.69633  -0.69633  -0.66613
 Alpha  occ. eigenvalues --   -0.45366  -0.45366
 Alpha virt. eigenvalues --    0.01246   0.05400   0.05531   0.05531   0.08121
 Alpha virt. eigenvalues --    0.14720   0.15537   0.15537   0.19334   0.19334
 Alpha virt. eigenvalues --    0.21958   0.21958   0.22623   0.26203   0.26203

 Mulliken charges and spin densities:
              1          2
     1  Br   0.345088   0.000000
     2  F   -0.345088   0.000000
 Sum of Mulliken charges =   0.00000 spin densities =   0.000000

 Dipole moment (field-independent basis, Debye):
    X=              0.0000    Y=              0.0000    Z=              1.6412  Tot=              1.6412
 Quadrupole moment (field-independent basis, Debye-Ang):
   XX=            -23.1881   YY=            -23.1881   ZZ=            -22.6465
   XY=              0.0000   XZ=              0.0000   YZ=              0.0000

 Normal termination of Gaussian DV at Wed May 22 17:30:34 2013.
