 ----------------------------------------------------------------------
 # ROMP2(RW) Gen GFinput Int=NoBasisTransform Int(Grid=Ultrafine) IOp(3
 /32=2,5/6=10,8/11=1,9/33=1) Maxdisk=128GB CBSextrapolate(Nmin=25,MinPo
 p)
 ----------------------------------------------------------------------

 99/5=1,9=1/99;
 -------
 BrO 2Pi
 -------
 Charge =  0 Multiplicity = 2

                         Standard orientation:
 ---------------------------------------------------------------------
 Center     Atomic      Atomic             Coordinates (Angstroms)
 Number     Number       Type             X           Y           Z
 ---------------------------------------------------------------------
      1         35           0        0.000000    0.000000    0.319479
      2          8           0        0.000000    0.000000   -1.397721
 ---------------------------------------------------------------------

 SCF Done:  E(ROHF) =  -2647.26201498     A.U. after   27 cycles
 E2 =    -0.4256939721D+00 EUMP2 =    -0.26476877089554D+04
 E2(CBS)=      -0.433168 CBS-Int=       0.003352 OIii=       2.514047

 Unable to determine electronic state:  an orbital has unidentified symmetry.
 Alpha  occ. eigenvalues -- -490.08767 -65.22633 -58.58206 -58.58071 -58.57987
 Alpha  occ. eigenvalues --  -20.68372  -9.89941  -7.51185  -7.50457  -7.50208
 Alpha  occ. eigenvalues --   -3.25775  -3.25323  -3.25136  -3.23976  -3.23968
 Alpha  occ. eigenvalues --   -1.42639  -1.00172  -0.70935  -0.63750  -0.62252
 Alpha  occ. eigenvalues --   -0.44388  -0.42599
 Alpha virt. eigenvalues --    0.03614   0.05338   0.05447   0.05562   0.09510
 Alpha virt. eigenvalues --    0.11836   0.11993   0.12311   0.19277   0.19293
 Alpha virt. eigenvalues --    0.19924   0.21958   0.22215   0.24999   0.25325

 Mulliken charges and spin densities:
              1          2
     1  Br   0.237055   0.086085
     2  O   -0.237055   0.913915
 Sum of Mulliken charges =   0.00000 spin densities =   1.000000

 Dipole moment (field-independent basis, Debye):
    X=              0.0000    Y=              0.0000    Z=              1.0504  Tot=              1.0504
 Quadrupole moment (field-independent basis, Debye-Ang):
   XX=            -22.9166   YY=            -24.1098   ZZ=            -23.1987
   XY=              0.0000   XZ=              0.0000   YZ=              0.0000

 Normal termination of Gaussian DV at Mon May 20 23:26:57 2013.
