 ----------------------------------------------------------------------
 #p apfd/ugbs1p opt=tight freq=(vibrot,anharm) int=(acc2e=12,grid=29997
 4) test gfprint gfinput output=pickett
 ----------------------------------------------------------------------

 (Enter /share/apps/gaussian/gdvh12/gdv/l101.exe)
 ---------------------------------------
 CCCCl pre-optimized at apfd/aug-cc-pVTZ
 ---------------------------------------
 Charge =  0 Multiplicity = 2

 SCF Done:  E(UAPFD) =  -574.136168749     A.U. after   17 cycles
 SCF Done:  E(UAPFD) =  -574.136176111     A.U. after   12 cycles
 SCF Done:  E(UAPFD) =  -574.136176555     A.U. after    9 cycles
 SCF Done:  E(UAPFD) =  -574.136176560     A.U. after    8 cycles
 Optimization completed.
    -- Stationary point found.
 Normal termination of Gaussian DV at Sat Jul 27 18:06:23 2013.

 ----------------------------------------------------------------------
 #P Geom=AllCheck Guess=TCheck SCRF=Check Test GenChk UAPFD/UGBS1P Freq
 ----------------------------------------------------------------------

 Structure from the checkpoint file:  CCCCl.chk
 ---------------------------------------
 CCCCl pre-optimized at apfd/aug-cc-pVTZ
 ---------------------------------------
 Charge =  0 Multiplicity = 2

                         Standard orientation:
 ---------------------------------------------------------------------
 Center     Atomic      Atomic             Coordinates (Angstroms)
 Number     Number       Type             X           Y           Z
 ---------------------------------------------------------------------
      1          6           0        0.000000    0.000000   -2.693699
      2          6           0        0.000000    0.000000   -1.371439
      3          6           0        0.000000    0.000000   -0.123345
      4         17           0        0.000000    0.000000    1.478288
 ---------------------------------------------------------------------

 SCF Done:  E(UAPFD) =  -574.136176560     A.U. after    1 cycles
 ******    1 imaginary frequencies (negative Signs) ******
    1 imaginary frequencies ignored.
 SCF Done:  E(UAPFD) =  -574.136167878     A.U. after    8 cycles
 SCF Done:  E(UAPFD) =  -574.136167878     A.U. after    1 cycles
 SCF Done:  E(UAPFD) =  -574.136167215     A.U. after   21 cycles
 SCF Done:  E(UAPFD) =  -574.136167215     A.U. after    1 cycles
 SCF Done:  E(UAPFD) =  -574.136166939     A.U. after   20 cycles
 SCF Done:  E(UAPFD) =  -574.136166939     A.U. after    1 cycles
 SCF Done:  E(UAPFD) =  -574.136166287     A.U. after   21 cycles
 SCF Done:  E(UAPFD) =  -574.136166287     A.U. after    1 cycles
 SCF Done:  E(UAPFD) =  -574.136164429     A.U. after   20 cycles
 SCF Done:  E(UAPFD) =  -574.136164322     A.U. after   11 cycles
 SCF Done:  E(UAPFD) =  -574.136154561     A.U. after   21 cycles
 SCF Done:  E(UAPFD) =  -574.136154682     A.U. after   12 cycles
 SCF Done:  E(UAPFD) =  -574.136141161     A.U. after   20 cycles
 SCF Done:  E(UAPFD) =  -574.136141701     A.U. after   12 cycles

 Alpha  occ. eigenvalues -- -101.72830 -10.33178 -10.26801 -10.23733  -9.60525
 Alpha  occ. eigenvalues --   -7.35000  -7.34140  -7.34048  -0.99059  -0.83267
 Alpha  occ. eigenvalues --   -0.71734  -0.58920  -0.47230  -0.46524  -0.36327
 Alpha  occ. eigenvalues --   -0.34876  -0.31972  -0.23083
 Alpha virt. eigenvalues --   -0.14735  -0.02336   0.00018   0.03709   0.03710
 Alpha virt. eigenvalues --    0.03740   0.05064   0.05393   0.05789   0.06712
 Alpha virt. eigenvalues --    0.06724   0.08193   0.09114   0.09713   0.10048

  Beta  occ. eigenvalues -- -101.72791 -10.32282 -10.25780 -10.24059  -9.60484
  Beta  occ. eigenvalues --   -7.35012  -7.34128  -7.33860  -0.98417  -0.82464
  Beta  occ. eigenvalues --   -0.69286  -0.58172  -0.46217  -0.45093  -0.34764
  Beta  occ. eigenvalues --   -0.33495  -0.30231
  Beta virt. eigenvalues --   -0.13385  -0.10451  -0.01691   0.00365   0.03789
  Beta virt. eigenvalues --    0.03959   0.04010   0.05436   0.05955   0.05984
  Beta virt. eigenvalues --    0.06810   0.06820   0.09424   0.09842   0.10120

 Mulliken charges and spin densities:
              1          2
     1  C   -0.274041   0.676664
     2  C   -1.433079  -0.326876
     3  C    0.975311   0.558777
     4  Cl   0.731809   0.091435
 Sum of Mulliken charges =   0.00000 spin densities =   1.000000

 Dipole moment (field-independent basis, Debye):
    X=              0.0000    Y=              0.0000    Z=              4.4498  Tot=              4.4498
 Quadrupole moment (field-independent basis, Debye-Ang):
   XX=            -29.0180   YY=            -29.0672   ZZ=            -37.8638
   XY=             -0.8875   XZ=              0.0000   YZ=              0.0000

  Exact polarizability:  33.700   0.536  33.730   0.000   0.000  94.496
 Approx polarizability:  46.872  -0.808  46.827   0.000   0.000 179.076

 ******    1 imaginary frequencies (negative Signs) ******

                      1                      2                      3
                     ?A                     ?A                     ?A
 Frequencies --   -319.2971                48.7485               207.1657
 Red. masses --     12.4576                12.4508                12.4251
 Frc consts  --      0.7483                 0.0174                 0.3142
 IR Inten    --      2.0479                 7.0470                 4.5319

                      4                      5                      6
                     ?A                     SG                     SG
 Frequencies --    365.2478               651.5480              1366.7164
 Red. masses --     12.4318                17.2668                12.3008
 Frc consts  --      0.9771                 4.3187                13.5376
 IR Inten    --      0.0090                23.4382                25.6504

                      7
                     SG
 Frequencies --   1954.5432
 Red. masses --     12.0447
 Frc consts  --     27.1105
 IR Inten    --    526.4062

 - Thermochemistry -
 -------------------
 Temperature   298.150 Kelvin.  Pressure   1.00000 Atm.
 Atom     1 has atomic number  6 and mass  12.00000

 Molecular mass:    70.96885 amu.
 Principal axes and moments of inertia in atomic units:
                           1         2         3
     Eigenvalues --     0.00000 664.98463 664.98463
           X            0.00000   0.00000   1.00000
           Y            0.00000   1.00000   0.00000
           Z            1.00000   0.00000   0.00000
 This molecule is a prolate symmetric top.
 Rotational symmetry number  1.
 Warning -- assumption of classical behavior for rotation
           may cause significant error
 Rotational temperature (Kelvin)      0.13025
 Rotational constant (GHZ):           2.713959
    1 imaginary frequencies ignored.
 Zero-point vibrational energy      27478.0 (Joules/Mol)
                                    6.56741 (Kcal/Mol)
 Warning -- explicit consideration of   3 degrees of freedom as
           vibrations may cause significant error
 Vibrational temperatures:     70.14   298.06   525.51   937.43  1966.40
          (Kelvin)           2812.15

 Zero-point correction=                           0.010466 (Hartree/Particle)
 Thermal correction to Energy=                    0.014701
 Thermal correction to Enthalpy=                  0.015645
 Thermal correction to Gibbs Free Energy=        -0.015647
 Sum of electronic and zero-point Energies=           -574.125711
 Sum of electronic and thermal Energies=              -574.121475
 Sum of electronic and thermal Enthalpies=            -574.120531
 Sum of electronic and thermal Free Energies=         -574.151824

                     E (Thermal)             CV                S
                      KCal/Mol        Cal/Mol-Kelvin    Cal/Mol-Kelvin
 Total                    9.225             11.377             65.860
 Electronic               0.000              0.000              1.377
 Translational            0.889              2.981             38.696
 Rotational               0.592              1.987             17.360
 Vibrational              7.744              6.409              8.427
 Vibration     1          0.595              1.978              4.868
 Vibration     2          0.641              1.830              2.069
 Vibration     3          0.738              1.544              1.100

 Optimization completed.
    -- Stationary point found.
 Error termination in NtrErr:
