 ----------------------------------------------------------------------
 #p apfd/ugbs1p opt=tight freq=(vibrot,anharm) int=(acc2e=12,grid=29997
 4) test gfprint gfinput output=pickett
 ----------------------------------------------------------------------

 (Enter /share/apps/gaussian/gdvh12/gdv/l101.exe)
 ---------------------------------------
 CCCCl bent, coordinates from Endo paper
 ---------------------------------------
 Charge =  0 Multiplicity = 2

 SCF Done:  E(UAPFD) =  -574.139925658     A.U. after   20 cycles
 SCF Done:  E(UAPFD) =  -574.140150218     A.U. after   14 cycles
 SCF Done:  E(UAPFD) =  -574.140167085     A.U. after   13 cycles
 SCF Done:  E(UAPFD) =  -574.140171463     A.U. after   14 cycles
 SCF Done:  E(UAPFD) =  -574.140173339     A.U. after   14 cycles
 SCF Done:  E(UAPFD) =  -574.140174173     A.U. after   14 cycles
 SCF Done:  E(UAPFD) =  -574.140174204     A.U. after   10 cycles
 Optimization completed.
    -- Stationary point found.
 Normal termination of Gaussian DV at Sun Jul 28 09:41:57 2013.

 ----------------------------------------------------------------------
 #P Geom=AllCheck Guess=TCheck SCRF=Check Test GenChk UAPFD/UGBS1P Freq
 ----------------------------------------------------------------------

 Structure from the checkpoint file:  CCCCl_bent.chk
 ---------------------------------------
 CCCCl bent, coordinates from Endo paper
 ---------------------------------------
 Charge =  0 Multiplicity = 2

                         Standard orientation:
 ---------------------------------------------------------------------
 Center     Atomic      Atomic             Coordinates (Angstroms)
 Number     Number       Type             X           Y           Z
 ---------------------------------------------------------------------
      1         17           0       -1.355237   -0.480730    0.000000
      2          6           0        0.000000    0.424132    0.000000
      3          6           0        1.276913    0.377706    0.000000
      4          6           0        2.562925    0.560230    0.000000
 ---------------------------------------------------------------------

 SCF Done:  E(UAPFD) =  -574.140174204     A.U. after    1 cycles
 SCF Done:  E(UAPFD) =  -574.140163590     A.U. after   10 cycles
 SCF Done:  E(UAPFD) =  -574.140163590     A.U. after   12 cycles
 SCF Done:  E(UAPFD) =  -574.140163466     A.U. after   22 cycles
 SCF Done:  E(UAPFD) =  -574.140163613     A.U. after   11 cycles
 SCF Done:  E(UAPFD) =  -574.140162391     A.U. after   22 cycles
 SCF Done:  E(UAPFD) =  -574.140162893     A.U. after   13 cycles
 SCF Done:  E(UAPFD) =  -574.140160620     A.U. after   22 cycles
 SCF Done:  E(UAPFD) =  -574.140160529     A.U. after   13 cycles
 SCF Done:  E(UAPFD) =  -574.140151214     A.U. after   22 cycles
 SCF Done:  E(UAPFD) =  -574.140151153     A.U. after   13 cycles
 SCF Done:  E(UAPFD) =  -574.140138713     A.U. after   22 cycles
 SCF Done:  E(UAPFD) =  -574.140138862     A.U. after   14 cycles

 Alpha  occ. eigenvalues -- -101.71687 -10.34449 -10.27588 -10.23555  -9.59430
 Alpha  occ. eigenvalues --   -7.33924  -7.33052  -7.32938  -0.97995  -0.83506
 Alpha  occ. eigenvalues --   -0.72165  -0.57598  -0.46584  -0.45777  -0.36297
 Alpha  occ. eigenvalues --   -0.34975  -0.32333  -0.25892
 Alpha virt. eigenvalues --   -0.15377  -0.03331  -0.00114   0.02904   0.03641
 Alpha virt. eigenvalues --    0.03909   0.04816   0.05241   0.06485   0.06631
 Alpha virt. eigenvalues --    0.06991   0.07693   0.08960   0.09632   0.10308

  Beta  occ. eigenvalues -- -101.71603 -10.33312 -10.26831 -10.23769  -9.59347
  Beta  occ. eigenvalues --   -7.33807  -7.33010  -7.32733  -0.97144  -0.82730
  Beta  occ. eigenvalues --   -0.70089  -0.56493  -0.45257  -0.43997  -0.34854
  Beta  occ. eigenvalues --   -0.33559  -0.31059
  Beta virt. eigenvalues --   -0.13923  -0.13197  -0.01543   0.00305   0.03440
  Beta virt. eigenvalues --    0.03942   0.03994   0.05374   0.05435   0.06772
  Beta virt. eigenvalues --    0.06779   0.07452   0.08229   0.09230   0.09852

 Mulliken charges and spin densities:
              1          2
     1  Cl   0.187636   0.098217
     2  C    0.182947   0.542573
     3  C   -0.543698  -0.179790
     4  C    0.173115   0.539000
 Sum of Mulliken charges =   0.00000 spin densities =   1.000000

 Dipole moment (field-independent basis, Debye):
    X=             -3.6441    Y=             -0.9754    Z=              0.0000  Tot=              3.7724
 Quadrupole moment (field-independent basis, Debye-Ang):
   XX=            -37.1597   YY=            -29.8003   ZZ=            -28.3508
   XY=             -0.7526   XZ=              0.0000   YZ=              0.0000

  Exact polarizability:  90.621  12.082  38.918   0.000   0.000  33.813
 Approx polarizability: 179.402  22.290  55.252   0.000   0.000  48.524

                      1                      2                      3
                     A"                     A'                     A'
 Frequencies --    152.6467               177.3077               405.4322
 Red. masses --     12.0360                13.2023                12.7255
 Frc consts  --      0.1652                 0.2445                 1.2324
 IR Inten    --      9.5988                 5.8564                 6.7939

                      4                      5                      6
                     A'                     A'                     A'
 Frequencies --    685.6025              1363.7739              1922.4369
 Red. masses --     15.7923                12.2173                12.0149
 Frc consts  --      4.3736                13.3879                26.1621
 IR Inten    --     70.1729                 5.1304               736.1605

 - Thermochemistry -
 -------------------
 Temperature   298.150 Kelvin.  Pressure   1.00000 Atm.
 Atom     1 has atomic number 17 and mass  34.96885

 Molecular mass:    70.96885 amu.
 Principal axes and moments of inertia in atomic units:
                           1         2         3
     Eigenvalues --     9.31522 627.42746 636.74268
           X            0.96139  -0.27518   0.00000
           Y            0.27518   0.96139   0.00000
           Z            0.00000   0.00000   1.00000
 This molecule is an asymmetric top.
 Rotational symmetry number  1.
 Rotational temperatures (Kelvin)      9.29810     0.13805     0.13603
 Rotational constants (GHZ):         193.74121     2.87641     2.83433
 Zero-point vibrational energy      28155.3 (Joules/Mol)
                                    6.72928 (Kcal/Mol)
 Warning -- explicit consideration of   3 degrees of freedom as
           vibrations may cause significant error
 Vibrational temperatures:    219.62   255.11   583.33   986.43  1962.16
          (Kelvin)           2765.95

 Zero-point correction=                           0.010724 (Hartree/Particle)
 Thermal correction to Energy=                    0.015224
 Thermal correction to Enthalpy=                  0.016169
 Thermal correction to Gibbs Free Energy=        -0.016708
 Sum of electronic and zero-point Energies=           -574.129450
 Sum of electronic and thermal Energies=              -574.124950
 Sum of electronic and thermal Enthalpies=            -574.124006
 Sum of electronic and thermal Free Energies=         -574.156882

                     E (Thermal)             CV                S
                      KCal/Mol        Cal/Mol-Kelvin    Cal/Mol-Kelvin
 Total                    9.553             12.183             69.194
 Electronic               0.000              0.000              1.377
 Translational            0.889              2.981             38.696
 Rotational               0.889              2.981             22.836
 Vibrational              7.776              6.221              6.285
 Vibration     1          0.619              1.900              2.639
 Vibration     2          0.628              1.870              2.357
 Vibration     3          0.770              1.458              0.943

 Optimization completed.
    -- Stationary point found.
 Error termination in NtrErr:
