 ----------------------------------------------------------------------
 #p apfd/ugbs1p opt=(tight,cartesian) freq=(vibrot,anharm) int=(acc2e=1
 2,grid=299974) test gfprint gfinput output=pickett
 ----------------------------------------------------------------------

 (Enter /share/apps/gaussian/gdvh12/gdv/l101.exe)
 ----------------------------------------
 CCCCCl pre-optimized at apfd/aug-cc-pVTZ
 ----------------------------------------
 Charge =  0 Multiplicity = 2

 SCF Done:  E(UAPFD) =  -612.198000855     A.U. after   19 cycles
 SCF Done:  E(UAPFD) =  -612.198006554     A.U. after   11 cycles
 SCF Done:  E(UAPFD) =  -612.198006724     A.U. after   10 cycles
 SCF Done:  E(UAPFD) =  -612.198006726     A.U. after    5 cycles
 Optimization completed.
    -- Stationary point found.
 Normal termination of Gaussian DV at Tue Jul 30 05:27:07 2013.

 ----------------------------------------------------------------------
 #P Geom=AllCheck Guess=TCheck SCRF=Check Test GenChk UAPFD/UGBS1P Freq
 ----------------------------------------------------------------------

 Structure from the checkpoint file:  CCCCCl.chk
 ----------------------------------------
 CCCCCl pre-optimized at apfd/aug-cc-pVTZ
 ----------------------------------------
 Charge =  0 Multiplicity = 2

                         Standard orientation:
 ---------------------------------------------------------------------
 Center     Atomic      Atomic             Coordinates (Angstroms)
 Number     Number       Type             X           Y           Z
 ---------------------------------------------------------------------
      1          6           0        0.000000    0.000000   -3.342213
      2          6           0        0.000000    0.000000   -2.133976
      3          6           0        0.000000    0.000000   -0.774925
      4          6           0        0.000000    0.000000    0.431248
      5         17           0        0.000000    0.000000    2.054070
 ---------------------------------------------------------------------

 SCF Done:  E(UAPFD) =  -612.198006726     A.U. after    1 cycles
 ******    2 imaginary frequencies (negative Signs) ******

                      1                      2                      3
                     PI                     PI                     PI
 Frequencies --   -607.0201              -607.0201               129.9269
 Red. masses --     12.0004                12.0004                13.0437
 Frc consts  --      2.6053                 2.6053                 0.1297
 IR Inten    --    320.4129               320.4129                 1.9441

                      4                      5                      6
                     PI                     PI                     PI
 Frequencies --    129.9269               296.2332               296.2332
 Red. masses --     13.0437                12.3212                12.3212
 Frc consts  --      0.1297                 0.6370                 0.6370
 IR Inten    --      1.9441                 0.3616                 0.3616

                      7                      8                      9
                     SG                     SG                     SG
 Frequencies --    559.4585              1139.2984              2177.5364
 Red. masses --     17.8247                12.6454                12.0115
 Frc consts  --      3.2871                 9.6707                33.5565
 IR Inten    --      6.9073                32.6644                 0.4103

                     10
                     SG
 Frequencies --   2317.4507
 Red. masses --     12.0147
 Frc consts  --     38.0177
 IR Inten    --     98.4806

 - Thermochemistry -
 -------------------
 Temperature   298.150 Kelvin.  Pressure   1.00000 Atm.
 Atom     1 has atomic number  6 and mass  12.00000

 Molecular mass:    82.96885 amu.
 Principal axes and moments of inertia in atomic units:
                           1         2         3
     Eigenvalues --     0.000001234.237551234.23755
           X            0.00000   0.00000   1.00000
           Y            0.00000   1.00000   0.00000
           Z            1.00000   0.00000   0.00000
 This molecule is a prolate symmetric top.
 Rotational symmetry number  1.
 Warning -- assumption of classical behavior for rotation
           may cause significant error
 Rotational temperature (Kelvin)      0.07018
 Rotational constant (GHZ):           1.462232
    2 imaginary frequencies ignored.
 Zero-point vibrational energy      42144.8 (Joules/Mol)
                                   10.07285 (Kcal/Mol)
 Warning -- explicit consideration of   5 degrees of freedom as
           vibrations may cause significant error
 Vibrational temperatures:    186.94   186.94   426.21   426.21   804.94
          (Kelvin)           1639.19  3132.99  3334.29

 Zero-point correction=                           0.016052 (Hartree/Particle)
 Thermal correction to Energy=                    0.020826
 Thermal correction to Enthalpy=                  0.021770
 Thermal correction to Gibbs Free Energy=        -0.010766
 Sum of electronic and zero-point Energies=           -612.181955
 Sum of electronic and thermal Energies=              -612.177181
 Sum of electronic and thermal Enthalpies=            -612.176237
 Sum of electronic and thermal Free Energies=         -612.208773

                     E (Thermal)             CV                S
                      KCal/Mol        Cal/Mol-Kelvin    Cal/Mol-Kelvin
 Total                   13.068             13.553             68.477
 Electronic               0.000              0.000              1.377
 Translational            0.889              2.981             39.162
 Rotational               0.592              1.987             18.589
 Vibrational             11.587              8.585              9.349
 Vibration     1          0.612              1.923              2.947
 Vibration     2          0.612              1.923              2.947
 Vibration     3          0.690              1.681              1.438
 Vibration     4          0.690              1.681              1.438
 Vibration     5          0.915              1.119              0.525

 SCF Done:  E(UAPFD) =  -612.197991835     A.U. after   16 cycles
 SCF Done:  E(UAPFD) =  -612.197991835     A.U. after    1 cycles
 SCF Done:  E(UAPFD) =  -612.198430964     A.U. after   25 cycles
 SCF Done:  E(UAPFD) =  -612.198430964     A.U. after    1 cycles
 SCF Done:  E(UAPFD) =  -612.198432166     A.U. after   21 cycles
 SCF Done:  E(UAPFD) =  -612.198432166     A.U. after    1 cycles
 SCF Done:  E(UAPFD) =  -612.198432204     A.U. after   22 cycles
 SCF Done:  E(UAPFD) =  -612.198432204     A.U. after    2 cycles
 SCF Done:  E(UAPFD) =  -612.198431857     A.U. after   25 cycles
 SCF Done:  E(UAPFD) =  -612.198431857     A.U. after    1 cycles

 Alpha  occ. eigenvalues -- -101.72828 -10.32699 -10.28613 -10.24462 -10.23086
 Alpha  occ. eigenvalues --   -9.60512  -7.35020  -7.34184  -7.33958  -0.98565
 Alpha  occ. eigenvalues --   -0.86701  -0.80876  -0.66950  -0.58625  -0.47704
 Alpha  occ. eigenvalues --   -0.46724  -0.40256  -0.38723  -0.31511  -0.29825
 Alpha  occ. eigenvalues --   -0.29398
 Alpha virt. eigenvalues --   -0.06259  -0.04816  -0.03081  -0.00343   0.02656
 Alpha virt. eigenvalues --    0.03324   0.03517   0.05355   0.06128   0.06309
 Alpha virt. eigenvalues --    0.06314   0.06380   0.07850   0.08296   0.08660

  Beta  occ. eigenvalues -- -101.72769 -10.32138 -10.28732 -10.23894 -10.22546
  Beta  occ. eigenvalues --   -9.60457  -7.35011  -7.33971  -7.33922  -0.98050
  Beta  occ. eigenvalues --   -0.85511  -0.78314  -0.66106  -0.58146  -0.46441
  Beta  occ. eigenvalues --   -0.45735  -0.38446  -0.36833  -0.28797  -0.28600
  Beta virt. eigenvalues --   -0.20803  -0.04482  -0.03045  -0.02572  -0.00148
  Beta virt. eigenvalues --    0.02811   0.03477   0.03535   0.05457   0.06371
  Beta virt. eigenvalues --    0.06378   0.06413   0.06506   0.07943   0.08671

 Mulliken charges and spin densities:
              1          2
     1  C    0.155809   0.373495
     2  C    0.138393   0.324953
     3  C   -1.440551  -0.060891
     4  C    0.501357   0.266799
     5  Cl   0.644992   0.095644
 Sum of Mulliken charges =   0.00000 spin densities =   1.000000

 Dipole moment (field-independent basis, Debye):
    X=             -0.0024    Y=             -0.0007    Z=              5.6492  Tot=              5.6492
 Quadrupole moment (field-independent basis, Debye-Ang):
   XX=            -34.5641   YY=            -34.0024   ZZ=            -48.3260
   XY=             -0.8456   XZ=              0.0028   YZ=             -0.0001

  Exact polarizability:  41.750   1.819  33.380   0.053  -0.011 137.111
 Approx polarizability:  53.604  -0.656  54.040   0.125   0.026 237.522
