 ----------------------------------------------------------------------
 #p apfd/ugbs1p opt=tight freq=(vibrot,anharm) int=(acc2e=12,grid=29997
 4) test gfprint gfinput output=pickett
 ----------------------------------------------------------------------

 (Enter /share/apps/gaussian/gdvh12/gdv/l101.exe)
 --------------------------------------
 CCCl pre-optimized at apfd/aug-cc-pVTZ
 --------------------------------------
 Charge =  0 Multiplicity = 2

 SCF Done:  E(UAPFD) =  -536.074532029     A.U. after   14 cycles
 SCF Done:  E(UAPFD) =  -536.084719397     A.U. after   12 cycles
 SCF Done:  E(UAPFD) =  -536.084927887     A.U. after    9 cycles
 SCF Done:  E(UAPFD) =  -536.084928654     A.U. after    8 cycles
 SCF Done:  E(UAPFD) =  -536.084928686     A.U. after    6 cycles
 Optimization completed.
    -- Stationary point found.
 Normal termination of Gaussian DV at Sat Jul 27 14:15:53 2013.

 ----------------------------------------------------------------------
 #P Geom=AllCheck Guess=TCheck SCRF=Check Test GenChk UAPFD/UGBS1P Freq
 ----------------------------------------------------------------------

 Structure from the checkpoint file:  CCCl.chk
 --------------------------------------
 CCCl pre-optimized at apfd/aug-cc-pVTZ
 --------------------------------------
 Charge =  0 Multiplicity = 2

                         Standard orientation:
 ---------------------------------------------------------------------
 Center     Atomic      Atomic             Coordinates (Angstroms)
 Number     Number       Type             X           Y           Z
 ---------------------------------------------------------------------
      1          6           0        0.000000    0.000000   -1.963886
      2          6           0        0.000000    0.000000   -0.679753
      3         17           0        0.000000    0.000000    0.933049
 ---------------------------------------------------------------------

 SCF Done:  E(UAPFD) =  -536.084928687     A.U. after    1 cycles
 ******    1 imaginary frequencies (negative Signs) ******
    1 imaginary frequencies ignored.
 SCF Done:  E(UAPFD) =  -536.084930038     A.U. after   13 cycles
 SCF Done:  E(UAPFD) =  -536.084930038     A.U. after    1 cycles
 SCF Done:  E(UAPFD) =  -536.084928324     A.U. after    6 cycles
 SCF Done:  E(UAPFD) =  -536.084928324     A.U. after    1 cycles
 SCF Done:  E(UAPFD) =  -536.084924827     A.U. after    9 cycles
 SCF Done:  E(UAPFD) =  -536.084924894     A.U. after    9 cycles
 SCF Done:  E(UAPFD) =  -536.084904555     A.U. after    8 cycles
 SCF Done:  E(UAPFD) =  -536.084904143     A.U. after    9 cycles

 Alpha  occ. eigenvalues -- -101.72430 -10.30869 -10.26185  -9.60133  -7.34561
 Alpha  occ. eigenvalues --   -7.33987  -7.33524  -0.98169  -0.80265  -0.59235
 Alpha  occ. eigenvalues --   -0.46887  -0.45169  -0.33460  -0.32152  -0.30541
 Alpha virt. eigenvalues --   -0.02375  -0.02275  -0.00094   0.00964   0.04206
 Alpha virt. eigenvalues --    0.04264   0.04677   0.07245   0.07275   0.07341
 Alpha virt. eigenvalues --    0.07595   0.07633   0.10736   0.12005   0.12012

  Beta  occ. eigenvalues -- -101.72306 -10.30082 -10.25582  -9.60018  -7.34517
  Beta  occ. eigenvalues --   -7.33559  -7.33455  -0.97311  -0.76657  -0.58200
  Beta  occ. eigenvalues --   -0.44776  -0.43698  -0.30935  -0.29569
  Beta virt. eigenvalues --   -0.20232  -0.01494   0.00458   0.01320   0.02131
  Beta virt. eigenvalues --    0.04425   0.04758   0.05063   0.07434   0.07466
  Beta virt. eigenvalues --    0.07618   0.07786   0.07796   0.10839   0.12083

 Mulliken charges and spin densities:
              1          2
     1  C   -0.002950   0.409312
     2  C   -0.199802   0.396953
     3  Cl   0.202752   0.193735
 Sum of Mulliken charges =   0.00000 spin densities =   1.000000

 Dipole moment (field-independent basis, Debye):
    X=              0.0000    Y=              0.0000    Z=              3.4701  Tot=              3.4701
 Quadrupole moment (field-independent basis, Debye-Ang):
   XX=            -24.5102   YY=            -22.5984   ZZ=            -29.7048
   XY=              0.0000   XZ=              0.0000   YZ=              0.0000

  Exact polarizability:  27.746   0.000  37.727   0.000   0.000  59.629
 Approx polarizability:  38.491   0.000  39.448   0.000   0.000  99.130

 ******    1 imaginary frequencies (negative Signs) ******

                      1                      2                      3
                     PI                     PI                     SG
 Frequencies --   -447.6030               231.4917               752.4612
 Red. masses --     12.3987                12.3987                16.1942
 Frc consts  --      1.4636                 0.3915                 5.4023
 IR Inten    --    146.9301                 0.0077                39.8956

                      4
                     SG
 Frequencies --   1897.8083
 Red. masses --     12.1009
 Frc consts  --     25.6786
 IR Inten    --      4.3460

 - Thermochemistry -
 -------------------
 Temperature   298.150 Kelvin.  Pressure   1.00000 Atm.
 Atom     1 has atomic number  6 and mass  12.00000

 Molecular mass:    58.96885 amu.
 Principal axes and moments of inertia in atomic units:
                           1         2         3
     Eigenvalues --     0.00000 293.74247 293.74247
           X            0.00000   0.00000   1.00000
           Y            0.00000   1.00000   0.00000
           Z            1.00000   0.00000   0.00000
 This molecule is a prolate symmetric top.
 Rotational symmetry number  1.
 Rotational temperature (Kelvin)      0.29486
 Rotational constant (GHZ):           6.143957
    1 imaginary frequencies ignored.
 Zero-point vibrational energy      17236.8 (Joules/Mol)
                                    4.11968 (Kcal/Mol)
 Warning -- explicit consideration of   1 degrees of freedom as
           vibrations may cause significant error
 Vibrational temperatures:    333.06  1082.62  2730.52
          (Kelvin)

 Zero-point correction=                           0.006565 (Hartree/Particle)
 Thermal correction to Energy=                    0.009533
 Thermal correction to Enthalpy=                  0.010477
 Thermal correction to Gibbs Free Energy=        -0.016785
 Sum of electronic and zero-point Energies=           -536.078364
 Sum of electronic and thermal Energies=              -536.075396
 Sum of electronic and thermal Enthalpies=            -536.074452
 Sum of electronic and thermal Free Energies=         -536.101713

                     E (Thermal)             CV                S
                      KCal/Mol        Cal/Mol-Kelvin    Cal/Mol-Kelvin
 Total                    5.982              7.511             57.377
 Electronic               0.000              0.000              1.377
 Translational            0.889              2.981             38.144
 Rotational               0.592              1.987             15.736
 Vibrational              4.501              2.543              2.119
 Vibration     1          0.653              1.793              1.867

 Optimization completed.
    -- Stationary point found.
 Normal termination of Gaussian DV at Mon Jul 29 13:50:46 2013.
