 ----------------------------------------------------------------------
 #p apfd/ugbs1p opt=tight freq=(vibrot,anharm) int=(acc2e=12,grid=29997
 4) test gfprint gfinput output=pickett
 ----------------------------------------------------------------------

 (Enter /share/apps/gaussian/gdvh12/gdv/l101.exe)
 ---
 CCH
 ---
 Charge =  0 Multiplicity = 2

 SCF Done:  E(UAPFD) =  -76.5560905040     A.U. after   12 cycles
 SCF Done:  E(UAPFD) =  -76.5669139152     A.U. after   11 cycles
 SCF Done:  E(UAPFD) =  -76.5671154363     A.U. after    9 cycles
 SCF Done:  E(UAPFD) =  -76.5671156564     A.U. after    5 cycles
 SCF Done:  E(UAPFD) =  -76.5671156588     A.U. after    4 cycles
 Optimization completed.
    -- Stationary point found.
 Normal termination of Gaussian DV at Sat Jul 27 11:41:52 2013.

 ----------------------------------------------------------------------
 #P Geom=AllCheck Guess=TCheck SCRF=Check Test GenChk UAPFD/UGBS1P Freq
 ----------------------------------------------------------------------

 Structure from the checkpoint file:  CCH.chk
 ---
 CCH
 ---
 Charge =  0 Multiplicity = 2

                         Standard orientation:
 ---------------------------------------------------------------------
 Center     Atomic      Atomic             Coordinates (Angstroms)
 Number     Number       Type             X           Y           Z
 ---------------------------------------------------------------------
      1          6           0        0.000000    0.000000    0.727779
      2          6           0        0.000000    0.000000   -0.471632
      3          1           0        0.000000    0.000000   -1.536885
 ---------------------------------------------------------------------

 SCF Done:  E(UAPFD) =  -76.5671156588     A.U. after    1 cycles
 SCF Done:  E(UAPFD) =  -76.5671145379     A.U. after    9 cycles
 SCF Done:  E(UAPFD) =  -76.5671145379     A.U. after    1 cycles
 SCF Done:  E(UAPFD) =  -76.5671145379     A.U. after    9 cycles
 SCF Done:  E(UAPFD) =  -76.5671145379     A.U. after    1 cycles
 SCF Done:  E(UAPFD) =  -76.5670861586     A.U. after    9 cycles
 SCF Done:  E(UAPFD) =  -76.5670857329     A.U. after    9 cycles
 SCF Done:  E(UAPFD) =  -76.5670365898     A.U. after    8 cycles
 SCF Done:  E(UAPFD) =  -76.5670336435     A.U. after    9 cycles

 Alpha  occ. eigenvalues --  -10.27259 -10.22469  -0.79488  -0.57126  -0.41956
 Alpha  occ. eigenvalues --   -0.32833  -0.32833
 Alpha virt. eigenvalues --    0.00809   0.00809   0.00998   0.02882   0.04835
 Alpha virt. eigenvalues --    0.04835   0.06647   0.08613   0.08613   0.08721
 Alpha virt. eigenvalues --    0.08721   0.11105   0.11587   0.11587   0.12230

  Beta  occ. eigenvalues --  -10.24863 -10.22518  -0.77439  -0.56099  -0.31328
  Beta  occ. eigenvalues --   -0.31328
  Beta virt. eigenvalues --   -0.18030   0.01193   0.02996   0.02996   0.03469
  Beta virt. eigenvalues --    0.04926   0.04926   0.07301   0.08594   0.08594
  Beta virt. eigenvalues --    0.09370   0.09370   0.11336   0.11673   0.11673

 Mulliken charges and spin densities:
              1          2
     1  C    0.254894   1.099840
     2  C   -0.255349  -0.139846
     3  H    0.000455   0.040006
 Sum of Mulliken charges =   0.00000 spin densities =   1.000000

 Dipole moment (field-independent basis, Debye):
    X=              0.0000    Y=              0.0000    Z=             -0.7554  Tot=              0.7554
 Quadrupole moment (field-independent basis, Debye-Ang):
   XX=            -12.8000   YY=            -12.8000   ZZ=             -8.1740
   XY=              0.0000   XZ=              0.0000   YZ=              0.0000

  Exact polarizability:  21.907   0.000  21.907   0.000   0.000  26.827
 Approx polarizability:  22.366   0.000  22.366   0.000   0.000  47.656

                      1                      2                      3
                     PI                     PI                     SG
 Frequencies --    406.8774               406.8774              2096.9499
 Red. masses --      1.3353                 1.3353                 5.6746
 Frc consts  --      0.1302                 0.1302                14.7014
 IR Inten    --      1.5757                 1.5757                 4.0283

                      4
                     SG
 Frequencies --   3452.0892
 Red. masses --      1.1591
 Frc consts  --      8.1385
 IR Inten    --     57.4150

 - Thermochemistry -
 -------------------
 Temperature   298.150 Kelvin.  Pressure   1.00000 Atm.
 Atom     1 has atomic number  6 and mass  12.00000

 Molecular mass:    25.00783 amu.
 Principal axes and moments of inertia in atomic units:
                           1         2         3
     Eigenvalues --     0.00000  40.39843  40.39843
           X            0.00000   0.00000   1.00000
           Y            0.00000   1.00000   0.00000
           Z            1.00000   0.00000   0.00000
 This molecule is a prolate symmetric top.
 Rotational symmetry number  1.
 Rotational temperature (Kelvin)      2.14399
 Rotational constant (GHZ):          44.673548
 Zero-point vibrational energy      38058.0 (Joules/Mol)
                                    9.09607 (Kcal/Mol)
 Warning -- explicit consideration of   2 degrees of freedom as
           vibrations may cause significant error
 Vibrational temperatures:    585.41   585.41  3017.04  4966.78
          (Kelvin)

 Zero-point correction=                           0.014496 (Hartree/Particle)
 Thermal correction to Energy=                    0.017462
 Thermal correction to Enthalpy=                  0.018406
 Thermal correction to Gibbs Free Energy=        -0.005652
 Sum of electronic and zero-point Energies=            -76.552620
 Sum of electronic and thermal Energies=               -76.549654
 Sum of electronic and thermal Enthalpies=             -76.548710
 Sum of electronic and thermal Free Energies=          -76.572768

                     E (Thermal)             CV                S
                      KCal/Mol        Cal/Mol-Kelvin    Cal/Mol-Kelvin
 Total                   10.957              7.887             50.634
 Electronic               0.000              0.000              1.377
 Translational            0.889              2.981             35.587
 Rotational               0.592              1.987             11.794
 Vibrational              9.476              2.919              1.876
 Vibration     1          0.772              1.455              0.938
 Vibration     2          0.772              1.455              0.938

 Optimization completed.
    -- Stationary point found.
 Normal termination of Gaussian DV at Sun Jul 28 21:00:55 2013.
