 ----------------------------------------------------------------------
 #p apfd/ugbs1p opt=tight freq=(vibrot,anharm) int=(acc2e=12,grid=29997
 4) test gfprint gfinput output=pickett
 ----------------------------------------------------------------------

 (Enter /share/apps/gaussian/gdvh12/gdv/l101.exe)
 -------------------------------------
 CCS pre-optimized at apfd/aug-cc-pVTZ
 -------------------------------------
 Charge =  0 Multiplicity = 3

 SCF Done:  E(UAPFD) =  -474.108184874     A.U. after   16 cycles
 SCF Done:  E(UAPFD) =  -474.115088703     A.U. after   12 cycles
 SCF Done:  E(UAPFD) =  -474.115464186     A.U. after   11 cycles
 SCF Done:  E(UAPFD) =  -474.115474479     A.U. after    9 cycles
 SCF Done:  E(UAPFD) =  -474.115474537     A.U. after    8 cycles
 SCF Done:  E(UAPFD) =  -474.115474537     A.U. after    4 cycles
 Optimization completed.
    -- Stationary point found.
 Normal termination of Gaussian DV at Sat Jul 27 14:58:38 2013.

 ----------------------------------------------------------------------
 #P Geom=AllCheck Guess=TCheck SCRF=Check Test GenChk UAPFD/UGBS1P Freq
 ----------------------------------------------------------------------

 Structure from the checkpoint file:  CCS.chk
 -------------------------------------
 CCS pre-optimized at apfd/aug-cc-pVTZ
 -------------------------------------
 Charge =  0 Multiplicity = 3

                         Standard orientation:
 ---------------------------------------------------------------------
 Center     Atomic      Atomic             Coordinates (Angstroms)
 Number     Number       Type             X           Y           Z
 ---------------------------------------------------------------------
      1          6           0        0.000000    0.000000   -1.923810
      2          6           0        0.000000    0.000000   -0.611555
      3         16           0        0.000000    0.000000    0.950762
 ---------------------------------------------------------------------

 SCF Done:  E(UAPFD) =  -474.115474537     A.U. after    1 cycles
 SCF Done:  E(UAPFD) =  -474.115471227     A.U. after   10 cycles
 SCF Done:  E(UAPFD) =  -474.115471227     A.U. after    1 cycles
 SCF Done:  E(UAPFD) =  -474.115471227     A.U. after   18 cycles
 SCF Done:  E(UAPFD) =  -474.115471227     A.U. after    1 cycles
 SCF Done:  E(UAPFD) =  -474.115466400     A.U. after   18 cycles
 SCF Done:  E(UAPFD) =  -474.115466380     A.U. after    8 cycles
 SCF Done:  E(UAPFD) =  -474.115451605     A.U. after   18 cycles
 SCF Done:  E(UAPFD) =  -474.115451475     A.U. after   11 cycles

 Alpha  occ. eigenvalues --  -89.03285 -10.28969 -10.27652  -8.06203  -6.00642
 Alpha  occ. eigenvalues --   -6.00642  -6.00446  -0.89027  -0.78027  -0.52247
 Alpha  occ. eigenvalues --   -0.42252  -0.42252  -0.33258  -0.29719  -0.29719
 Alpha virt. eigenvalues --   -0.02213  -0.02213  -0.00542   0.01948   0.04401
 Alpha virt. eigenvalues --    0.04401   0.04487   0.06250   0.06250   0.06707
 Alpha virt. eigenvalues --    0.06707   0.08320   0.10672   0.10672   0.10723

  Beta  occ. eigenvalues --  -89.02705 -10.28696 -10.26182  -8.05644  -6.00135
  Beta  occ. eigenvalues --   -5.99493  -5.99493  -0.86694  -0.72696  -0.49473
  Beta  occ. eigenvalues --   -0.37896  -0.37896  -0.30685
  Beta virt. eigenvalues --   -0.17370  -0.17370   0.00047   0.01480   0.01480
  Beta virt. eigenvalues --    0.02657   0.05059   0.05765   0.05765   0.06804
  Beta virt. eigenvalues --    0.06804   0.07268   0.07268   0.08936   0.10855

 Mulliken charges and spin densities:
              1          2
     1  C    0.295676   1.012355
     2  C   -0.620269   0.017181
     3  S    0.324593   0.970464
 Sum of Mulliken charges =   0.00000 spin densities =   2.000000

 Dipole moment (field-independent basis, Debye):
    X=              0.0000    Y=              0.0000    Z=              3.0781  Tot=              3.0781
 Quadrupole moment (field-independent basis, Debye-Ang):
   XX=            -23.7782   YY=            -23.7782   ZZ=            -29.3602
   XY=              0.0000   XZ=              0.0000   YZ=              0.0000

  Exact polarizability:  32.317   0.000  32.317   0.000   0.000  72.377
 Approx polarizability:  43.791   0.000  43.791   0.000   0.000 133.518

                      1                      2                      3
                     PI                     PI                     SG
 Frequencies --    225.0684               225.0684               875.3516
 Red. masses --     12.4426                12.4426                15.9361
 Frc consts  --      0.3714                 0.3714                 7.1945
 IR Inten    --      7.6633                 7.6633                14.5721

                      4
                     SG
 Frequencies --   1721.5384
 Red. masses --     12.2556
 Frc consts  --     21.4002
 IR Inten    --     43.4231

 - Thermochemistry -
 -------------------
 Temperature   298.150 Kelvin.  Pressure   1.00000 Atm.
 Atom     1 has atomic number  6 and mass  12.00000

 Molecular mass:    55.97207 amu.
 Principal axes and moments of inertia in atomic units:
                           1         2         3
     Eigenvalues --     0.00000 277.83461 277.83461
           X            0.00000   1.00000   0.00000
           Y            0.00000   0.00000   1.00000
           Z            1.00000   0.00000   0.00000
 This molecule is a prolate symmetric top.
 Rotational symmetry number  1.
 Rotational temperature (Kelvin)      0.31175
 Rotational constant (GHZ):           6.495739
 Zero-point vibrational energy      18225.3 (Joules/Mol)
                                    4.35594 (Kcal/Mol)
 Warning -- explicit consideration of   2 degrees of freedom as
           vibrations may cause significant error
 Vibrational temperatures:    323.82   323.82  1259.43  2476.91
          (Kelvin)

 Zero-point correction=                           0.006942 (Hartree/Particle)
 Thermal correction to Energy=                    0.010408
 Thermal correction to Enthalpy=                  0.011352
 Thermal correction to Gibbs Free Energy=        -0.017056
 Sum of electronic and zero-point Energies=           -474.108533
 Sum of electronic and thermal Energies=              -474.105066
 Sum of electronic and thermal Enthalpies=            -474.104122
 Sum of electronic and thermal Free Energies=         -474.132531

                     E (Thermal)             CV                S
                      KCal/Mol        Cal/Mol-Kelvin    Cal/Mol-Kelvin
 Total                    6.531              9.142             59.792
 Electronic               0.000              0.000              2.183
 Translational            0.889              2.981             37.988
 Rotational               0.592              1.987             15.626
 Vibrational              5.050              4.174              3.994
 Vibration     1          0.650              1.803              1.918
 Vibration     2          0.650              1.803              1.918

 Optimization completed.
    -- Stationary point found.
 Error termination in NtrErr:
