 Gaussian 09, Revision A.02,
 Gaussian 09:  EM64L-G09RevA.02 11-Jun-2009

 ----------------------------------------------------------------------
 # ROMP2 Gen GFinput Int=NoBasisTransform SCF=Symm IOP(3/32=2,5/6=8,9/3
 3=1) Int(Grid=Ultrafine) CBSextrapolate(Nmin=25,MinPop) Guess=Read
 ----------------------------------------------------------------------

 --------
 CoO+ 5/\
 --------
 Symbolic Z-matrix:
 Charge =  1 Multiplicity = 5

                         Standard orientation:
 ---------------------------------------------------------------------
 Center     Atomic      Atomic             Coordinates (Angstroms)
 Number     Number       Type             X           Y           Z
 ---------------------------------------------------------------------
      1         27           0        0.000000    0.000000    0.373029
      2          8           0        0.000000    0.000000   -1.258971
 ---------------------------------------------------------------------

 SCF Done:  E(ROHF) =  -1455.92101750     A.U. after   27 cycles
 E2 =    -0.5875303999D+00 EUMP2 =    -0.14565085479001D+04
 E2(CBS)=      -0.592275 CBS-Int=       0.001733 OIii=       2.529956

 Unable to determine electronic state:  partially filled degenerate orbitals.
 Alpha  occ. eigenvalues -- -283.20249 -35.02302 -30.27891 -30.27758 -30.27758
 Alpha  occ. eigenvalues --  -20.95632  -4.75146  -3.28164  -3.26250  -3.26250
 Alpha  occ. eigenvalues --   -1.67935  -0.97755  -0.97755  -0.96043  -0.84768
 Alpha  occ. eigenvalues --   -0.80083  -0.77725  -0.77725  -0.75377
 Alpha virt. eigenvalues --   -0.20446  -0.11488  -0.11488  -0.08719  -0.07048
 Alpha virt. eigenvalues --   -0.05169  -0.05142  -0.04865  -0.04865  -0.04300
 Alpha virt. eigenvalues --   -0.03524   0.00746   0.00746   0.01403   0.06383

 Mulliken atomic charges:
              1
     1  Co   1.195883
     2  O   -0.195883
 Sum of Mulliken atomic charges =   1.00000

 Dipole moment (field-independent basis, Debye):
    X=              0.0000    Y=              0.0000    Z=              2.5780  Tot=              2.5780
 Quadrupole moment (field-independent basis, Debye-Ang):
   XX=            -13.6269   YY=            -13.6269   ZZ=            -12.9796
   XY=              0.0000   XZ=              0.0000   YZ=              0.0000

 Normal termination of Gaussian 09 at Thu Dec 12 22:17:08 2013.
