 Gaussian 09, Revision A.02,
 Gaussian 09:  EM64L-G09RevA.02 11-Jun-2009

 ----------------------------------------------------------------------
 # ROMP2 Gen GFinput Int=NoBasisTransform Guess=Read SCF=Symm IOP(3/32=
 2,5/6=8,9/33=1) Int(Grid=Ultrafine) CBSextrapolate(Nmin=25,MinPop)
 ----------------------------------------------------------------------

 --------
 CoO- 3Sg
 --------
 Symbolic Z-matrix:
 Charge = -1 Multiplicity = 3

                         Standard orientation:
 ---------------------------------------------------------------------
 Center     Atomic      Atomic             Coordinates (Angstroms)
 Number     Number       Type             X           Y           Z
 ---------------------------------------------------------------------
      1         27           0        0.000000    0.000000    0.369371
      2          8           0        0.000000    0.000000   -1.246629
 ---------------------------------------------------------------------

 SCF Done:  E(ROHF) =  -1456.14566208     A.U. after   25 cycles
 E2 =    -0.6791640648D+00 EUMP2 =    -0.14568248261489D+04
 E2(CBS)=      -0.684918 CBS-Int=       0.002349 OIii=       3.163712

 Unable to determine electronic state:  an orbital has unidentified symmetry.
 Alpha  occ. eigenvalues -- -282.81069 -34.63051 -29.90633 -29.87550 -29.86758
 Alpha  occ. eigenvalues --  -20.21972  -4.31010  -2.83717  -2.81578  -2.76786
 Alpha  occ. eigenvalues --   -0.91530  -0.44563  -0.44174  -0.35952  -0.35881
 Alpha  occ. eigenvalues --   -0.20694  -0.13949  -0.13804  -0.07368
 Alpha virt. eigenvalues --    0.07686   0.15230   0.15283   0.15408   0.16863
 Alpha virt. eigenvalues --    0.16873   0.16888   0.20582   0.21232   0.21544
 Alpha virt. eigenvalues --    0.27445   0.29106   0.29266   0.35129   0.36818

 Mulliken atomic charges:
              1
     1  Co   1.045916
     2  O   -2.045916
 Sum of Mulliken atomic charges =  -1.00000

 Dipole moment (field-independent basis, Debye):
    X=              0.0000    Y=              0.0000    Z=              3.4529  Tot=              3.4529
 Quadrupole moment (field-independent basis, Debye-Ang):
   XX=            -25.9328   YY=            -26.2628   ZZ=            -41.7647
   XY=              0.0000   XZ=              0.0000   YZ=              0.0000

 Normal termination of Gaussian 09 at Fri Dec 13 06:53:52 2013.
