 Gaussian 09, Revision A.02,
 Gaussian 09:  EM64L-G09RevA.02 11-Jun-2009

 ----------------------------------------------------------------------
 # ROMP2 Gen GFinput Int=NoBasisTransform SCF=Symm IOP(3/32=2,5/6=8,9/3
 3=1) Guess=Read CBSextrapolate(Nmin=25,MinPop) Int(Grid=Ultrafine)
 ----------------------------------------------------------------------

 -------
 CoO 4/\
 -------
 Symbolic Z-matrix:
 Charge =  0 Multiplicity = 4

                         Standard orientation:
 ---------------------------------------------------------------------
 Center     Atomic      Atomic             Coordinates (Angstroms)
 Number     Number       Type             X           Y           Z
 ---------------------------------------------------------------------
      1         27           0        0.000000    0.000000    0.365714
      2          8           0        0.000000    0.000000   -1.234286
 ---------------------------------------------------------------------

 SCF Done:  E(ROHF) =  -1456.16128228     A.U. after   24 cycles
 E2 =    -0.6669514753D+00 EUMP2 =    -0.14568282337598D+04
 E2(CBS)=      -0.672225 CBS-Int=       0.002145 OIii=       2.702532

 The electronic state is 4-SG.
 Alpha  occ. eigenvalues -- -283.04694 -34.89268 -30.18807 -30.12339 -30.12339
 Alpha  occ. eigenvalues --  -20.42764  -4.62726  -3.23513  -3.09042  -3.09042
 Alpha  occ. eigenvalues --   -1.13409  -0.73469  -0.73469  -0.71487  -0.61636
 Alpha  occ. eigenvalues --   -0.61636  -0.36977  -0.35278  -0.35278
 Alpha virt. eigenvalues --   -0.05037   0.00973   0.03498   0.03498   0.04028
 Alpha virt. eigenvalues --    0.05860   0.06269   0.06269   0.07759   0.07759
 Alpha virt. eigenvalues --    0.09903   0.16261   0.16261   0.16740   0.20615

 Mulliken atomic charges:
              1
     1  Co   1.207730
     2  O   -1.207730
 Sum of Mulliken atomic charges =   0.00000

 Dipole moment (field-independent basis, Debye):
    X=              0.0000    Y=              0.0000    Z=              8.8100  Tot=              8.8100
 Quadrupole moment (field-independent basis, Debye-Ang):
   XX=            -18.3042   YY=            -18.3042   ZZ=            -22.0699
   XY=              0.0000   XZ=              0.0000   YZ=              0.0000

 Normal termination of Gaussian 09 at Mon Dec 16 06:59:47 2013.
