 Gaussian 09, Revision A.02,
 Gaussian 09:  EM64L-G09RevA.02 11-Jun-2009

 ----------------------------------------------------------------------
 # ROMP2 Gen GFinput Int=NoBasisTransform Int(Grid=Ultrafine) IOp(3/32=
 2,5/6=10,8/11=1,9/33=1) Maxdisk=128GB CBSextrapolate(Nmin=25,MinPop) S
 CF=Symm Guess=Read
 ----------------------------------------------------------------------

 ---------
 CrO+ 4Sg-
 ---------
 Symbolic Z-matrix:
 Charge =  1 Multiplicity = 4

                         Standard orientation:
 ---------------------------------------------------------------------
 Center     Atomic      Atomic             Coordinates (Angstroms)
 Number     Number       Type             X           Y           Z
 ---------------------------------------------------------------------
      1         24           0        0.000000    0.000000    0.403500
      2          8           0        0.000000    0.000000   -1.210500
 ---------------------------------------------------------------------

 SCF Done:  E(ROHF) =  -1117.82790035     A.U. after   20 cycles
 E2 =    -0.5086911932D+00 EUMP2 =    -0.11183365915416D+04
 E2(CBS)=      -0.512155 CBS-Int=       0.001553 OIii=       1.529231

 The electronic state is 4-SG.
 Alpha  occ. eigenvalues -- -220.97007 -26.86199 -22.79113 -22.79113 -22.78121
 Alpha  occ. eigenvalues --  -20.78532  -3.96833  -2.75720  -2.75720  -2.71249
 Alpha  occ. eigenvalues --   -1.44428  -0.93440  -0.90179  -0.90179  -0.70217
 Alpha  occ. eigenvalues --   -0.70217  -0.66879
 Alpha virt. eigenvalues --   -0.25568  -0.21051  -0.21051  -0.10759  -0.10759
 Alpha virt. eigenvalues --   -0.08581  -0.07731  -0.04038  -0.02555  -0.02555
 Alpha virt. eigenvalues --   -0.01138  -0.01138  -0.00845   0.01658   0.01658

 Mulliken atomic charges:
              1
     1  Cr   1.594622
     2  O   -0.594622
 Sum of Mulliken atomic charges =   1.00000

 Dipole moment (field-independent basis, Debye):
    X=              0.0000    Y=              0.0000    Z=              7.8197  Tot=              7.8197
 Quadrupole moment (field-independent basis, Debye-Ang):
   XX=            -15.2690   YY=            -15.2690   ZZ=            -15.4517
   XY=              0.0000   XZ=              0.0000   YZ=              0.0000

 Normal termination of Gaussian 09 at Mon Nov 11 19:55:57 2013.
