 Gaussian 09, Revision A.02,
 Gaussian 09:  EM64L-G09RevA.02 11-Jun-2009

 ----------------------------------------------------------------------
 # ROMP2 Gen GFinput Int=NoBasisTransform Int(Grid=Ultrafine) IOp(3/32=
 2,5/6=10,8/11=1,9/33=1) Maxdisk=128GB CBSextrapolate(Nmin=25,MinPop) S
 CF=Symm Guess=Read
 ----------------------------------------------------------------------

 --------
 CrO- 4Pi
 --------
 Symbolic Z-matrix:
 Charge = -1 Multiplicity = 4

                         Standard orientation:
 ---------------------------------------------------------------------
 Center     Atomic      Atomic             Coordinates (Angstroms)
 Number     Number       Type             X           Y           Z
 ---------------------------------------------------------------------
      1         24           0        0.000000    0.000000    0.411750
      2          8           0        0.000000    0.000000   -1.235250
 ---------------------------------------------------------------------

 SCF Done:  E(ROHF) =  -1118.14755193     A.U. after   30 cycles
 E2 =    -0.4943133831D+00 EUMP2 =    -0.11186418653093D+04
 E2(CBS)=      -0.498888 CBS-Int=       0.002312 OIii=       1.690097

 Unable to determine electronic state:  an orbital has unidentified symmetry.
 Alpha  occ. eigenvalues -- -220.46799 -26.36794 -22.29470 -22.29469 -22.28871
 Alpha  occ. eigenvalues --  -20.29582  -3.47942  -2.28680  -2.25936  -2.21051
 Alpha  occ. eigenvalues --   -0.97743  -0.45193  -0.41321  -0.39979  -0.27971
 Alpha  occ. eigenvalues --   -0.24166  -0.20846  -0.06526
 Alpha virt. eigenvalues --    0.07865   0.16251   0.19130   0.20374   0.20791
 Alpha virt. eigenvalues --    0.21307   0.24762   0.24903   0.28762   0.28974
 Alpha virt. eigenvalues --    0.30198   0.31018   0.33642   0.33655   0.34766

 Mulliken atomic charges:
              1
     1  Cr  -1.826001
     2  O    0.826001
 Sum of Mulliken atomic charges =  -1.00000

 Dipole moment (field-independent basis, Debye):
    X=              0.0000    Y=              0.0000    Z=              0.4993  Tot=              0.4993
 Quadrupole moment (field-independent basis, Debye-Ang):
   XX=            -33.5204   YY=            -32.8202   ZZ=            -44.3405
   XY=              0.0000   XZ=              0.0000   YZ=              0.0000

 Normal termination of Gaussian 09 at Wed Nov 20 10:40:18 2013.
