 Gaussian 09, Revision A.02,
 Gaussian 09:  EM64L-G09RevA.02 11-Jun-2009

 ----------------------------------------------------------------------
 # ROMP2 Gen GFinput Int=NoBasisTransform Int(Grid=Ultrafine) IOp(3/32=
 2,5/6=10,8/11=1,9/33=1) Maxdisk=128GB CBSextrapolate(Nmin=25,MinPop) S
 CF=Symm Guess=Read
 ----------------------------------------------------------------------

 -------
 CrO 5Pi
 -------
 Symbolic Z-matrix:
 Charge =  0 Multiplicity = 5

                         Standard orientation:
 ---------------------------------------------------------------------
 Center     Atomic      Atomic             Coordinates (Angstroms)
 Number     Number       Type             X           Y           Z
 ---------------------------------------------------------------------
      1         24           0        0.000000    0.000000    0.405250
      2          8           0        0.000000    0.000000   -1.215750
 ---------------------------------------------------------------------

 SCF Done:  E(ROHF) =  -1118.13779988     A.U. after   36 cycles
 E2 =    -0.4800030765D+00 EUMP2 =    -0.11186178029531D+04
 E2(CBS)=      -0.483533 CBS-Int=       0.001559 OIii=       1.597238

 Unable to determine electronic state:  an orbital has unidentified symmetry.
 Alpha  occ. eigenvalues -- -220.62651 -26.52083 -22.44886 -22.44742 -22.44034
 Alpha  occ. eigenvalues --  -20.47007  -3.64888  -2.45761  -2.42198  -2.39801
 Alpha  occ. eigenvalues --   -1.14795  -0.60707  -0.57895  -0.56656  -0.47766
 Alpha  occ. eigenvalues --   -0.41618  -0.37652  -0.31725
 Alpha virt. eigenvalues --   -0.00481   0.01381   0.01998   0.04464   0.05789
 Alpha virt. eigenvalues --    0.10658   0.12350   0.13019   0.13232   0.13987
 Alpha virt. eigenvalues --    0.14028   0.14076   0.18118   0.18348   0.19404

 Mulliken atomic charges:
              1
     1  Cr   0.757516
     2  O   -0.757516
 Sum of Mulliken atomic charges =   0.00000

 Dipole moment (field-independent basis, Debye):
    X=              0.0000    Y=              0.0000    Z=              6.7877  Tot=              6.7877
 Quadrupole moment (field-independent basis, Debye-Ang):
   XX=            -20.8732   YY=            -19.7807   ZZ=            -23.8939
   XY=              0.0000   XZ=              0.0000   YZ=              0.0000

 Normal termination of Gaussian 09 at Tue Nov 12 11:36:45 2013.
