 Gaussian 09, Revision A.02,
 Gaussian 09:  EM64L-G09RevA.02 11-Jun-2009

 ----------------------------------------------------------------------
 # ROMP2(RW) Gen GFinput Int=NoBasisTransform Int(Grid=Ultrafine) IOp(3
 /32=2,5/6=10,8/11=1,9/33=1) Maxdisk=128GB CBSextrapolate(Nmin=15,MinPo
 p)
 ----------------------------------------------------------------------

 ---
 Cu2
 ---
 Symbolic Z-matrix:
 Charge =  0 Multiplicity = 1

                         Standard orientation:
 ---------------------------------------------------------------------
 Center     Atomic      Atomic             Coordinates (Angstroms)
 Number     Number       Type             X           Y           Z
 ---------------------------------------------------------------------
      1         29           0        0.000000    0.000000    1.109850
      2         29           0        0.000000    0.000000   -1.109850
 ---------------------------------------------------------------------

 SCF Done:  E(ROHF) =  -3277.94083359     A.U. after   21 cycles
 E2 =    -0.1177769529D+01 EUMP2 =    -0.32791186031148D+04
 E2(CBS)=      -1.204433 CBS-Int=       0.008983 OIii=       5.978150

 The electronic state is 1-SGG.
 Alpha  occ. eigenvalues -- -328.78266-328.78266 -40.81022 -40.81022 -35.60881
 Alpha  occ. eigenvalues --  -35.60881 -35.60881 -35.60881 -35.60874 -35.60873
 Alpha  occ. eigenvalues --   -5.00239  -5.00155  -3.31898  -3.31302  -3.31302
 Alpha  occ. eigenvalues --   -3.31245  -3.31245  -3.31197  -0.51065  -0.49883
 Alpha  occ. eigenvalues --   -0.49883  -0.48229  -0.48229  -0.47492  -0.47492
 Alpha  occ. eigenvalues --   -0.46037  -0.46037  -0.45065  -0.23684
 Alpha virt. eigenvalues --    0.00777   0.04165   0.04372   0.04372   0.05683
 Alpha virt. eigenvalues --    0.08001   0.08001   0.09069   0.14393   0.14393
 Alpha virt. eigenvalues --    0.15997   0.16821   0.16821   0.17696   0.17696

 Mulliken atomic charges:
              1
     1  Cu   0.000000
     2  Cu   0.000000
 Sum of Mulliken atomic charges =   0.00000

 Dipole moment (field-independent basis, Debye):
    X=              0.0000    Y=              0.0000    Z=              0.0000  Tot=              0.0000
 Quadrupole moment (field-independent basis, Debye-Ang):
   XX=            -28.6548   YY=            -28.6548   ZZ=            -19.6228
   XY=              0.0000   XZ=              0.0000   YZ=              0.0000

 Normal termination of Gaussian 09 at Sun Mar  3 13:17:49 2013.
