 Gaussian 09, Revision A.02,
 Gaussian 09:  EM64L-G09RevA.02 11-Jun-2009

 ----------------------------------------------------------------------
 # ROMP2(RW) Gen GFinput Int=NoBasisTransform Int(Grid=Ultrafine) IOp(3
 /32=2,5/6=10,8/11=1,9/33=1) Maxdisk=128GB CBSextrapolate(Nmin=20,MinPo
 p)
 ----------------------------------------------------------------------

 ---
 Cu2
 ---
 Symbolic Z-matrix:
 Charge =  0 Multiplicity = 1

                         Standard orientation:
 ---------------------------------------------------------------------
 Center     Atomic      Atomic             Coordinates (Angstroms)
 Number     Number       Type             X           Y           Z
 ---------------------------------------------------------------------
      1         29           0        0.000000    0.000000    1.109850
      2         29           0        0.000000    0.000000   -1.109850
 ---------------------------------------------------------------------

 SCF Done:  E(ROHF) =  -3277.94134805     A.U. after   19 cycles
 E2 =    -0.2037922034D-01 EUMP2 =    -0.32779617272683D+04
 E2(CBS)=      -0.021215 CBS-Int=       0.000753 OIii=       0.099189

 The electronic state is 1-SGG.
 Alpha  occ. eigenvalues -- -328.78275-328.78275 -40.81038 -40.81038 -35.60895
 Alpha  occ. eigenvalues --  -35.60895 -35.60895 -35.60895 -35.60890 -35.60888
 Alpha  occ. eigenvalues --   -5.00251  -5.00167  -3.31912  -3.31316  -3.31316
 Alpha  occ. eigenvalues --   -3.31259  -3.31259  -3.31211  -0.51080  -0.49899
 Alpha  occ. eigenvalues --   -0.49899  -0.48244  -0.48244  -0.47506  -0.47506
 Alpha  occ. eigenvalues --   -0.46051  -0.46051  -0.45078  -0.23696
 Alpha virt. eigenvalues --    0.00706   0.03686   0.04130   0.04130   0.04878
 Alpha virt. eigenvalues --    0.07410   0.07410   0.07977   0.12509   0.12509
 Alpha virt. eigenvalues --    0.14317   0.14512   0.14512   0.15406   0.15406

 Mulliken atomic charges:
              1
     1  Cu   0.000000
     2  Cu   0.000000
 Sum of Mulliken atomic charges =   0.00000

 Dipole moment (field-independent basis, Debye):
    X=              0.0000    Y=              0.0000    Z=              0.0000  Tot=              0.0000
 Quadrupole moment (field-independent basis, Debye-Ang):
   XX=            -28.5944   YY=            -28.5944   ZZ=            -19.6525
   XY=              0.0000   XZ=              0.0000   YZ=              0.0000

 Normal termination of Gaussian 09 at Thu Aug  2 01:29:39 2012.
