 Gaussian 09, Revision A.02,
 Gaussian 09:  EM64L-G09RevA.02 11-Jun-2009

 ----------------------------------------------------------------------
 # ROMP2 Gen GFinput Int=NoBasisTransform Int(Grid=Ultrafine) IOp(3/32=
 2,5/6=10,8/11=1,9/33=1) Maxdisk=128GB CBSextrapolate(Nmin=25,MinPop) G
 uess=Read
 ----------------------------------------------------------------------

 -----------
 FeO- 4Delta
 -----------
 Symbolic Z-matrix:
 Charge = -1 Multiplicity = 4

                         Standard orientation:
 ---------------------------------------------------------------------
 Center     Atomic      Atomic             Coordinates (Angstroms)
 Number     Number       Type             X           Y           Z
 ---------------------------------------------------------------------
      1         26           0        0.000000    0.000000    0.388565
      2          8           0        0.000000    0.000000   -1.262835
 ---------------------------------------------------------------------

 SCF Done:  E(ROHF) =  -1337.21773806     A.U. after   23 cycles
 E2 =    -0.6403342658D+00 EUMP2 =    -0.13378580723265D+04
 E2(CBS)=      -0.645824 CBS-Int=       0.002555 OIii=       2.224518

 Unable to determine electronic state:  partially filled degenerate orbitals.
 Alpha  occ. eigenvalues -- -261.18363 -31.79800 -27.28732 -27.26926 -27.26926
 Alpha  occ. eigenvalues --  -20.27675  -4.09500  -2.70633  -2.68935  -2.68935
 Alpha  occ. eigenvalues --   -0.95477  -0.49857  -0.49857  -0.44101  -0.39226
 Alpha  occ. eigenvalues --   -0.27007  -0.19226  -0.19226  -0.08188
 Alpha virt. eigenvalues --    0.08402   0.13656   0.13656   0.13730   0.15405
 Alpha virt. eigenvalues --    0.15618   0.15618   0.16275   0.16279   0.17543
 Alpha virt. eigenvalues --    0.22889   0.26171   0.26171   0.27701   0.31236

 Mulliken atomic charges:
              1
     1  Fe  -0.416128
     2  O   -0.583872
 Sum of Mulliken atomic charges =  -1.00000

 Dipole moment (field-independent basis, Debye):
    X=              0.0000    Y=              0.0000    Z=              2.4269  Tot=              2.4269
 Quadrupole moment (field-independent basis, Debye-Ang):
   XX=            -29.5137   YY=            -29.5137   ZZ=            -38.1611
   XY=              0.0000   XZ=              0.0000   YZ=              0.0000

 Normal termination of Gaussian 09 at Fri Dec 20 10:30:44 2013.
