 Gaussian 09, Revision A.02,
 Gaussian 09:  EM64L-G09RevA.02 11-Jun-2009

 ----------------------------------------------------------------------
 # ROMP2 Gen GFinput Int=NoBasisTransform Int(Grid=Ultrafine) IOp(3/32=
 2,5/6=10,8/11=1,9/33=1) Maxdisk=128GB CBSextrapolate(Nmin=25,MinPop) G
 uess=Read
 ----------------------------------------------------------------------

 ----------
 FeO 5Delta
 ----------
 Symbolic Z-matrix:
 Charge =  0 Multiplicity = 5

                         Standard orientation:
 ---------------------------------------------------------------------
 Center     Atomic      Atomic             Coordinates (Angstroms)
 Number     Number       Type             X           Y           Z
 ---------------------------------------------------------------------
      1         26           0        0.000000    0.000000    0.374000
      2          8           0        0.000000    0.000000   -1.215500
 ---------------------------------------------------------------------

 SCF Done:  E(ROHF) =  -1337.23509373     A.U. after   26 cycles
 E2 =    -0.5708398217D+00 EUMP2 =    -0.13378059335538D+04
 E2(CBS)=      -0.575275 CBS-Int=       0.001856 OIii=       2.145066

 Unable to determine electronic state:  partially filled degenerate orbitals.
 Alpha  occ. eigenvalues -- -261.35216 -31.96953 -27.46461 -27.43908 -27.43908
 Alpha  occ. eigenvalues --  -20.42342  -4.30711  -2.96230  -2.89502  -2.89502
 Alpha  occ. eigenvalues --   -1.12932  -0.68652  -0.68652  -0.64650  -0.64600
 Alpha  occ. eigenvalues --   -0.59778  -0.35127  -0.34829  -0.34829
 Alpha virt. eigenvalues --   -0.04404   0.01042   0.01944   0.01944   0.03380
 Alpha virt. eigenvalues --    0.05844   0.05853   0.06049   0.06049   0.06066
 Alpha virt. eigenvalues --    0.07574   0.10007   0.10007   0.14540   0.18298

 Mulliken atomic charges:
              1
     1  Fe   1.102759
     2  O   -1.102759
 Sum of Mulliken atomic charges =   0.00000

 Dipole moment (field-independent basis, Debye):
    X=              0.0000    Y=              0.0000    Z=              8.6927  Tot=              8.6927
 Quadrupole moment (field-independent basis, Debye-Ang):
   XX=            -18.6183   YY=            -18.6183   ZZ=            -22.6176
   XY=              0.0000   XZ=              0.0000   YZ=              0.0000

 Normal termination of Gaussian 09 at Thu Dec 19 07:35:58 2013.
