 ----------------------------------------------------------------------
 #p apfd/ugbs1p geom=allcheck guess=read freq=(vibrot,anharm,readanh) i
 nt=(acc2e=12,grid=299974) test gfprint gfinput output=pickett
 ----------------------------------------------------------------------

 Structure from the checkpoint file:  FS2.chk
 --------------------------------------
 FS2 coordinates taken from Saito paper
 --------------------------------------
 Charge =  0 Multiplicity = 2

                         Standard orientation:
 ---------------------------------------------------------------------
 Center     Atomic      Atomic             Coordinates (Angstroms)
 Number     Number       Type             X           Y           Z
 ---------------------------------------------------------------------
      1          9           0        1.614000    0.428302    0.000000
      2         16           0        0.000000    0.706491    0.000000
      3         16           0       -0.907875   -0.947410    0.000000
 ---------------------------------------------------------------------

 SCF Done:  E(UAPFD) =  -896.039815701     A.U. after    3 cycles
 SCF Done:  E(UAPFD) =  -896.039815112     A.U. after    7 cycles
 SCF Done:  E(UAPFD) =  -896.039815118     A.U. after    8 cycles
 SCF Done:  E(UAPFD) =  -896.039812401     A.U. after    9 cycles
 SCF Done:  E(UAPFD) =  -896.039812449     A.U. after    9 cycles
 SCF Done:  E(UAPFD) =  -896.039812264     A.U. after    9 cycles
 SCF Done:  E(UAPFD) =  -896.039812246     A.U. after    9 cycles

 Alpha  occ. eigenvalues --  -89.07754 -88.99211 -24.75943  -8.09741  -8.02154
 Alpha  occ. eigenvalues --   -6.04509  -6.03933  -6.03821  -5.96742  -5.96668
 Alpha  occ. eigenvalues --   -5.95971  -1.24930  -0.87134  -0.67510  -0.52520
 Alpha  occ. eigenvalues --   -0.49819  -0.49445  -0.38895  -0.38462  -0.31683
 Alpha  occ. eigenvalues --   -0.25625
 Alpha virt. eigenvalues --   -0.07165  -0.01712   0.00713   0.03916   0.04357
 Alpha virt. eigenvalues --    0.05319   0.05741   0.06712   0.06857   0.07077
 Alpha virt. eigenvalues --    0.07731   0.10882   0.11015   0.11264   0.11593

  Beta  occ. eigenvalues --  -89.07448 -88.98856 -24.75795  -8.09447  -8.01811
  Beta  occ. eigenvalues --   -6.04339  -6.03671  -6.02888  -5.96473  -5.95759
  Beta  occ. eigenvalues --   -5.95544  -1.24582  -0.85793  -0.65370  -0.51534
  Beta  occ. eigenvalues --   -0.48961  -0.48232  -0.37980  -0.34301  -0.30855
  Beta virt. eigenvalues --   -0.14528  -0.06336  -0.00909   0.01013   0.04369
  Beta virt. eigenvalues --    0.04470   0.05636   0.06067   0.07060   0.07071
  Beta virt. eigenvalues --    0.07582   0.07854   0.11168   0.11434   0.11589

 Mulliken charges and spin densities:
              1          2
     1  F   -0.318130  -0.007848
     2  S    0.373843   0.437119
     3  S   -0.055713   0.570729
 Sum of Mulliken charges =   0.00000 spin densities =   1.000000

 Dipole moment (field-independent basis, Debye):
    X=             -0.8620    Y=              0.3980    Z=              0.0000  Tot=              0.9495
 Quadrupole moment (field-independent basis, Debye-Ang):
   XX=            -31.9909   YY=            -28.7637   ZZ=            -30.2363
   XY=              0.3490   XZ=              0.0000   YZ=              0.0000

  Exact polarizability:  46.650  11.571  50.493   0.000   0.000  32.096
 Approx polarizability:  79.424  29.101  93.457   0.000   0.000  47.156

                      1                      2                      3
                     A'                     A'                     A'
 Frequencies --    294.5284               696.3173               714.1353
 Red. masses --     23.7979                25.2473                27.6020
 Frc consts  --      1.2163                 7.2124                 8.2938
 IR Inten    --      4.9916                55.2199               143.8610

 - Thermochemistry -
 -------------------
 Temperature   298.150 Kelvin.  Pressure   1.00000 Atm.
 Atom     1 has atomic number  9 and mass  18.99840

 Molecular mass:    82.94255 amu.
 Principal axes and moments of inertia in atomic units:
                           1         2         3
     Eigenvalues --    68.05932 374.57334 442.63267
           X            0.81314  -0.58207   0.00000
           Y            0.58207   0.81314   0.00000
           Z            0.00000   0.00000   1.00000
 This molecule is an asymmetric top.
 Rotational symmetry number  1.
 Rotational temperatures (Kelvin)      1.27262     0.23123     0.19568
 Rotational constants (GHZ):          26.51718     4.81813     4.07729
 Zero-point vibrational energy      10198.1 (Joules/Mol)
                                    2.43739 (Kcal/Mol)
 Warning -- explicit consideration of   1 degrees of freedom as
           vibrations may cause significant error
 Vibrational temperatures:    423.76  1001.84  1027.48
          (Kelvin)

 Zero-point correction=                           0.003884 (Hartree/Particle)
 Thermal correction to Energy=                    0.007365
 Thermal correction to Enthalpy=                  0.008309
 Thermal correction to Gibbs Free Energy=        -0.023298
 Sum of electronic and zero-point Energies=           -896.035931
 Sum of electronic and thermal Energies=              -896.032451
 Sum of electronic and thermal Enthalpies=            -896.031506
 Sum of electronic and thermal Free Energies=         -896.063114

                     E (Thermal)             CV                S
                      KCal/Mol        Cal/Mol-Kelvin    Cal/Mol-Kelvin
 Total                    4.622              9.284             66.524
 Electronic               0.000              0.000              1.377
 Translational            0.889              2.981             39.161
 Rotational               0.889              2.981             23.938
 Vibrational              2.844              3.323              2.048
 Vibration     1          0.689              1.684              1.448

 Optimization completed.
    -- Stationary point found.
 Normal termination of Gaussian DV at Sat Aug  3 06:53:07 2013.
