 Gaussian 09, Revision A.02,
 Gaussian 09:  EM64L-G09RevA.02 11-Jun-2009

 ----------------------------------------------------------------------
 # ROCCSD(T,RW) Gen GFinput Int=NoBasisTransform Int(Grid=Ultrafine) IO
 p(3/32=2,5/6=10,8/11=1,9/33=1) Maxdisk=128GB Opt=(Tight,Z-Matrix)
 ----------------------------------------------------------------------

 ---
 Ga2
 ---
 Symbolic Z-matrix:
 Charge =  0 Multiplicity = 3

 SCF Done:  E(ROHF) =  -3846.48271458     A.U. after   14 cycles
 E2 =    -0.1122523301D+00 EUMP2 =    -0.38465949669143D+04
 CCSD(T)= -0.38466193302D+04
 SCF Done:  E(ROHF) =  -3846.48272955     A.U. after    8 cycles
 E2 =    -0.1122520897D+00 EUMP2 =    -0.38465949816434D+04
 CCSD(T)= -0.38466193450D+04
 SCF Done:  E(ROHF) =  -3846.48269961     A.U. after    8 cycles
 E2 =    -0.1122525704D+00 EUMP2 =    -0.38465949521819D+04
 CCSD(T)= -0.38466193153D+04
 SCF Done:  E(ROHF) =  -3846.51491214     A.U. after   12 cycles
 E2 =    -0.1111749770D+00 EUMP2 =    -0.38466260871145D+04
 CCSD(T)= -0.38466509016D+04
 SCF Done:  E(ROHF) =  -3846.53023194     A.U. after   12 cycles
 E2 =    -0.1094956435D+00 EUMP2 =    -0.38466397275870D+04
 CCSD(T)= -0.38466650645D+04
 SCF Done:  E(ROHF) =  -3846.53571398     A.U. after   12 cycles
 E2 =    -0.1074636618D+00 EUMP2 =    -0.38466431776448D+04
 CCSD(T)= -0.38466691199D+04
 SCF Done:  E(ROHF) =  -3846.53557628     A.U. after   12 cycles
 E2 =    -0.1053221338D+00 EUMP2 =    -0.38466408984095D+04
 CCSD(T)= -0.38466675359D+04
 SCF Done:  E(ROHF) =  -3846.53605635     A.U. after   11 cycles
 E2 =    -0.1069961653D+00 EUMP2 =    -0.38466430525122D+04
 CCSD(T)= -0.38466691391D+04
 SCF Done:  E(ROHF) =  -3846.53605676     A.U. after    8 cycles
 E2 =    -0.1069952904D+00 EUMP2 =    -0.38466430520496D+04
 CCSD(T)= -0.38466691389D+04
 SCF Done:  E(ROHF) =  -3846.53601996     A.U. after   10 cycles
 E2 =    -0.1070675287D+00 EUMP2 =    -0.38466430874933D+04
 CCSD(T)= -0.38466691518D+04
 SCF Done:  E(ROHF) =  -3846.53602044     A.U. after    8 cycles
 E2 =    -0.1070666561D+00 EUMP2 =    -0.38466430870986D+04
 CCSD(T)= -0.38466691517D+04
 SCF Done:  E(ROHF) =  -3846.53593612     A.U. after   10 cycles
 E2 =    -0.1072022712D+00 EUMP2 =    -0.38466431383952D+04
 CCSD(T)= -0.38466691610D+04
 SCF Done:  E(ROHF) =  -3846.53593673     A.U. after    8 cycles
 E2 =    -0.1072014033D+00 EUMP2 =    -0.38466431381321D+04
 CCSD(T)= -0.38466691610D+04
 SCF Done:  E(ROHF) =  -3846.53594010     A.U. after    9 cycles
 E2 =    -0.1071965376D+00 EUMP2 =    -0.38466431366415D+04
 CCSD(T)= -0.38466691610D+04
 SCF Done:  E(ROHF) =  -3846.53594070     A.U. after    8 cycles
 E2 =    -0.1071956695D+00 EUMP2 =    -0.38466431363728D+04
 CCSD(T)= -0.38466691610D+04
 SCF Done:  E(ROHF) =  -3846.53593950     A.U. after    8 cycles
 E2 =    -0.1071974057D+00 EUMP2 =    -0.38466431369094D+04
 CCSD(T)= -0.38466691610D+04

                         Standard orientation:
 ---------------------------------------------------------------------
 Center     Atomic      Atomic             Coordinates (Angstroms)
 Number     Number       Type             X           Y           Z
 ---------------------------------------------------------------------
      1         31           0        0.000000    0.000000    1.248085
      2         31           0        0.000000    0.000000   -1.248085
 ---------------------------------------------------------------------

 The electronic state is 3-SGG.
 Alpha  occ. eigenvalues -- -378.82881-378.82881 -48.17880 -48.17880 -42.50494
 Alpha  occ. eigenvalues --  -42.50494 -42.50494 -42.50494 -42.50449 -42.50448
 Alpha  occ. eigenvalues --   -6.40596  -6.40590  -4.49504  -4.49441  -4.49406
 Alpha  occ. eigenvalues --   -4.49406  -4.49398  -4.49398  -1.21335  -1.20891
 Alpha  occ. eigenvalues --   -1.20891  -1.20405  -1.20405  -1.20331  -1.20331
 Alpha  occ. eigenvalues --   -1.20292  -1.20292  -1.20044  -0.56778  -0.37761
 Alpha  occ. eigenvalues --   -0.23034  -0.23034
 Alpha virt. eigenvalues --   -0.02612   0.02465   0.02542   0.02542   0.04369
 Alpha virt. eigenvalues --    0.04369   0.04723   0.05961   0.07076   0.07076
 Alpha virt. eigenvalues --    0.10163   0.18911   0.18911   0.19131   0.23722

 Mulliken atomic charges:
              1
     1  Ga   0.000000
     2  Ga   0.000000
 Sum of Mulliken atomic charges =   0.00000

 Dipole moment (field-independent basis, Debye):
    X=              0.0000    Y=              0.0000    Z=              0.0000  Tot=              0.0000
 Quadrupole moment (field-independent basis, Debye-Ang):
   XX=            -37.9389   YY=            -37.9389   ZZ=            -27.5390
   XY=              0.0000   XZ=              0.0000   YZ=              0.0000

 P2-0=-3846.6431366\MP4SDQ=-3846.6611218\CCSD=-3846.6607431\CCSD(T)=-38
 Normal termination of Gaussian 09 at Sat Aug 25 17:40:07 2012.
