 Gaussian 09, Revision A.02,
 Gaussian 09:  EM64L-G09RevA.02 11-Jun-2009

 ----------------------------------------------------------------------
 # ROMP2(RW) Gen GFinput Int=NoBasisTransform Int(Grid=Ultrafine) IOp(3
 /32=2,5/6=10,8/11=1,9/33=1) Maxdisk=128GB CBSextrapolate(Nmin=20,MinPo
 p)
 ----------------------------------------------------------------------

 ---
 Ga2
 ---
 Symbolic Z-matrix:
 Charge =  0 Multiplicity = 3

                         Standard orientation:
 ---------------------------------------------------------------------
 Center     Atomic      Atomic             Coordinates (Angstroms)
 Number     Number       Type             X           Y           Z
 ---------------------------------------------------------------------
      1         31           0        0.000000    0.000000    1.248085
      2         31           0        0.000000    0.000000   -1.248085
 ---------------------------------------------------------------------

 SCF Done:  E(ROHF) =  -3846.53756395     A.U. after   18 cycles
 E2 =    -0.1107733308D+00 EUMP2 =    -0.38466483372819D+04
 E2(CBS)=      -0.113973 CBS-Int=       0.002057 OIii=       0.416007

 The electronic state is 3-SGG.
 Alpha  occ. eigenvalues -- -378.82687-378.82687 -48.17707 -48.17707 -42.50321
 Alpha  occ. eigenvalues --  -42.50321 -42.50321 -42.50321 -42.50274 -42.50274
 Alpha  occ. eigenvalues --   -6.40466  -6.40459  -4.49366  -4.49303  -4.49287
 Alpha  occ. eigenvalues --   -4.49287  -4.49279  -4.49279  -1.21199  -1.20761
 Alpha  occ. eigenvalues --   -1.20761  -1.20292  -1.20292  -1.20201  -1.20201
 Alpha  occ. eigenvalues --   -1.20179  -1.20179  -1.19907  -0.56714  -0.37694
 Alpha  occ. eigenvalues --   -0.23003  -0.23003
 Alpha virt. eigenvalues --   -0.02548   0.01482   0.01883   0.01883   0.02028
 Alpha virt. eigenvalues --    0.02028   0.02461   0.03629   0.03629   0.04292
 Alpha virt. eigenvalues --    0.06244   0.08386   0.08386   0.08686   0.08704

 Mulliken atomic charges:
              1
     1  Ga   0.000000
     2  Ga   0.000000
 Sum of Mulliken atomic charges =   0.00000

 Dipole moment (field-independent basis, Debye):
    X=              0.0000    Y=              0.0000    Z=              0.0000  Tot=              0.0000
 Quadrupole moment (field-independent basis, Debye-Ang):
   XX=            -37.7908   YY=            -37.7908   ZZ=            -27.4595
   XY=              0.0000   XZ=              0.0000   YZ=              0.0000

 Normal termination of Gaussian 09 at Sun Aug 26 00:04:12 2012.
