 Gaussian 09, Revision A.02,
 Gaussian 09:  EM64L-G09RevA.02 11-Jun-2009

 ----------------------------------------------------------------------
 # ROCCSD(T,RW) Gen GFinput Int=NoBasisTransform Int(Grid=Ultrafine) IO
 p(3/32=2,5/6=10,8/11=1,9/33=1) Maxdisk=128GB Opt=(Tight,Z-Matrix)
 ----------------------------------------------------------------------

 ---
 Ga2
 ---
 Symbolic Z-matrix:
 Charge =  0 Multiplicity = 3

 SCF Done:  E(ROHF) =  -3846.53594010     A.U. after   14 cycles
 E2 =    -0.3754175015D+00 EUMP2 =    -0.38469113576054D+04
 CCSD(T)= -0.38469375847D+04
 SCF Done:  E(ROHF) =  -3846.53594061     A.U. after    8 cycles
 E2 =    -0.3754156971D+00 EUMP2 =    -0.38469113563021D+04
 CCSD(T)= -0.38469375838D+04
 SCF Done:  E(ROHF) =  -3846.53593960     A.U. after    8 cycles
 E2 =    -0.3754193060D+00 EUMP2 =    -0.38469113589083D+04
 CCSD(T)= -0.38469375856D+04
 SCF Done:  E(ROHF) =  -3846.53366761     A.U. after   11 cycles
 E2 =    -0.3791708606D+00 EUMP2 =    -0.38469128384742D+04
 CCSD(T)= -0.38469383042D+04
 SCF Done:  E(ROHF) =  -3846.53239234     A.U. after   11 cycles
 E2 =    -0.3803859972D+00 EUMP2 =    -0.38469127783366D+04
 CCSD(T)= -0.38469380147D+04
 SCF Done:  E(ROHF) =  -3846.53441891     A.U. after   11 cycles
 E2 =    -0.3782976944D+00 EUMP2 =    -0.38469127166014D+04
 CCSD(T)= -0.38469383518D+04
 SCF Done:  E(ROHF) =  -3846.53442041     A.U. after    8 cycles
 E2 =    -0.3782957704D+00 EUMP2 =    -0.38469127161818D+04
 CCSD(T)= -0.38469383517D+04
 SCF Done:  E(ROHF) =  -3846.53430172     A.U. after   10 cycles
 E2 =    -0.3784450504D+00 EUMP2 =    -0.38469127467743D+04
 CCSD(T)= -0.38469383530D+04
 SCF Done:  E(ROHF) =  -3846.53430328     A.U. after    8 cycles
 E2 =    -0.3784431206D+00 EUMP2 =    -0.38469127464042D+04
 CCSD(T)= -0.38469383531D+04
 SCF Done:  E(ROHF) =  -3846.53432084     A.U. after    9 cycles
 E2 =    -0.3784213407D+00 EUMP2 =    -0.38469127421818D+04
 CCSD(T)= -0.38469383531D+04
 SCF Done:  E(ROHF) =  -3846.53432239     A.U. after    8 cycles
 E2 =    -0.3784194118D+00 EUMP2 =    -0.38469127418038D+04
 CCSD(T)= -0.38469383531D+04
 SCF Done:  E(ROHF) =  -3846.53431929     A.U. after    8 cycles
 E2 =    -0.3784232697D+00 EUMP2 =    -0.38469127425592D+04
 CCSD(T)= -0.38469383531D+04

                         Standard orientation:
 ---------------------------------------------------------------------
 Center     Atomic      Atomic             Coordinates (Angstroms)
 Number     Number       Type             X           Y           Z
 ---------------------------------------------------------------------
      1         31           0        0.000000    0.000000    1.205294
      2         31           0        0.000000    0.000000   -1.205294
 ---------------------------------------------------------------------

 The electronic state is 3-SGG.
 Alpha  occ. eigenvalues -- -378.82772-378.82772 -48.17803 -48.17803 -42.50417
 Alpha  occ. eigenvalues --  -42.50417 -42.50417 -42.50417 -42.50369 -42.50369
 Alpha  occ. eigenvalues --   -6.40534  -6.40524  -4.49478  -4.49382  -4.49341
 Alpha  occ. eigenvalues --   -4.49341  -4.49330  -4.49330  -1.21485  -1.20925
 Alpha  occ. eigenvalues --   -1.20925  -1.20344  -1.20344  -1.20202  -1.20202
 Alpha  occ. eigenvalues --   -1.20199  -1.20199  -1.19827  -0.57737  -0.37103
 Alpha  occ. eigenvalues --   -0.23568  -0.23568
 Alpha virt. eigenvalues --   -0.02576   0.02499   0.02810   0.02810   0.04325
 Alpha virt. eigenvalues --    0.04325   0.04733   0.06059   0.07322   0.07322
 Alpha virt. eigenvalues --    0.10248   0.18888   0.18888   0.19972   0.23918

 Mulliken atomic charges:
              1
     1  Ga   0.000000
     2  Ga   0.000000
 Sum of Mulliken atomic charges =   0.00000

 Dipole moment (field-independent basis, Debye):
    X=              0.0000    Y=              0.0000    Z=              0.0000  Tot=              0.0000
 Quadrupole moment (field-independent basis, Debye-Ang):
   XX=            -37.5841   YY=            -37.5841   ZZ=            -27.9580
   XY=              0.0000   XZ=              0.0000   YZ=              0.0000

 P2-0=-3846.9127422\MP4SDQ=-3846.9210367\CCSD=-3846.9127029\CCSD(T)=-38
 Normal termination of Gaussian 09 at Thu Aug 30 00:21:14 2012.
