 Gaussian 09, Revision A.02,
 Gaussian 09:  EM64L-G09RevA.02 11-Jun-2009

 ----------------------------------------------------------------------
 # ROMP2(RW) Gen GFinput Int=NoBasisTransform Int(Grid=Ultrafine) IOp(3
 /32=2,5/6=10,8/11=1,9/33=1) Maxdisk=128GB CBSextrapolate(Nmin=25,MinPo
 p)
 ----------------------------------------------------------------------

 ---
 Ga2
 ---
 Symbolic Z-matrix:
 Charge =  0 Multiplicity = 3

                         Standard orientation:
 ---------------------------------------------------------------------
 Center     Atomic      Atomic             Coordinates (Angstroms)
 Number     Number       Type             X           Y           Z
 ---------------------------------------------------------------------
      1         31           0        0.000000    0.000000    1.248085
      2         31           0        0.000000    0.000000   -1.248085
 ---------------------------------------------------------------------

 SCF Done:  E(ROHF) =  -3846.53762783     A.U. after   18 cycles
 E2 =    -0.1112958791D+00 EUMP2 =    -0.38466489237057D+04
 E2(CBS)=      -0.113521 CBS-Int=       0.001457 OIii=       0.381307

 The electronic state is 3-SGG.
 Alpha  occ. eigenvalues -- -378.82693-378.82693 -48.17711 -48.17711 -42.50326
 Alpha  occ. eigenvalues --  -42.50326 -42.50326 -42.50326 -42.50276 -42.50275
 Alpha  occ. eigenvalues --   -6.40466  -6.40459  -4.49355  -4.49292  -4.49292
 Alpha  occ. eigenvalues --   -4.49292  -4.49284  -4.49284  -1.21191  -1.20757
 Alpha  occ. eigenvalues --   -1.20757  -1.20299  -1.20299  -1.20197  -1.20197
 Alpha  occ. eigenvalues --   -1.20186  -1.20186  -1.19898  -0.56714  -0.37693
 Alpha  occ. eigenvalues --   -0.23004  -0.23004
 Alpha virt. eigenvalues --   -0.02551   0.01432   0.01854   0.01854   0.02008
 Alpha virt. eigenvalues --    0.02008   0.02305   0.03598   0.03598   0.03686
 Alpha virt. eigenvalues --    0.06079   0.08158   0.08280   0.08280   0.08482

 Mulliken atomic charges:
              1
     1  Ga   0.000000
     2  Ga   0.000000
 Sum of Mulliken atomic charges =   0.00000

 Dipole moment (field-independent basis, Debye):
    X=              0.0000    Y=              0.0000    Z=              0.0000  Tot=              0.0000
 Quadrupole moment (field-independent basis, Debye-Ang):
   XX=            -37.7924   YY=            -37.7924   ZZ=            -27.4502
   XY=              0.0000   XZ=              0.0000   YZ=              0.0000

 Normal termination of Gaussian 09 at Sun Aug 26 06:48:27 2012.
