 Gaussian 09, Revision A.02,
 Gaussian 09:  EM64L-G09RevA.02 11-Jun-2009

 ----------------------------------------------------------------------
 # ROMP2(RW) Gen GFinput Int=NoBasisTransform Int(Grid=Ultrafine) IOp(3
 /32=2,5/6=10,8/11=1,9/33=1) Maxdisk=128GB CBSextrapolate(Nmin=20,MinPo
 p)
 ----------------------------------------------------------------------

 ---
 Ga2
 ---
 Symbolic Z-matrix:
 Charge =  0 Multiplicity = 3

                         Standard orientation:
 ---------------------------------------------------------------------
 Center     Atomic      Atomic             Coordinates (Angstroms)
 Number     Number       Type             X           Y           Z
 ---------------------------------------------------------------------
      1         31           0        0.000000    0.000000    1.248085
      2         31           0        0.000000    0.000000   -1.248085
 ---------------------------------------------------------------------

 SCF Done:  E(ROHF) =  -3846.53757968     A.U. after   17 cycles
 E2 =    -0.1109140555D+00 EUMP2 =    -0.38466484937341D+04
 E2(CBS)=      -0.113995 CBS-Int=       0.002012 OIii=       0.403105

 The electronic state is 3-SGG.
 Alpha  occ. eigenvalues -- -378.82687-378.82687 -48.17708 -48.17708 -42.50322
 Alpha  occ. eigenvalues --  -42.50322 -42.50322 -42.50322 -42.50275 -42.50275
 Alpha  occ. eigenvalues --   -6.40468  -6.40461  -4.49368  -4.49305  -4.49289
 Alpha  occ. eigenvalues --   -4.49289  -4.49281  -4.49281  -1.21201  -1.20763
 Alpha  occ. eigenvalues --   -1.20763  -1.20294  -1.20294  -1.20203  -1.20203
 Alpha  occ. eigenvalues --   -1.20181  -1.20181  -1.19908  -0.56715  -0.37695
 Alpha  occ. eigenvalues --   -0.23004  -0.23004
 Alpha virt. eigenvalues --   -0.02550   0.01425   0.01882   0.01882   0.01991
 Alpha virt. eigenvalues --    0.01991   0.02405   0.03546   0.03546   0.03802
 Alpha virt. eigenvalues --    0.05776   0.07365   0.08230   0.08230   0.08432

 Mulliken atomic charges:
              1
     1  Ga   0.000000
     2  Ga   0.000000
 Sum of Mulliken atomic charges =   0.00000

 Dipole moment (field-independent basis, Debye):
    X=              0.0000    Y=              0.0000    Z=              0.0000  Tot=              0.0000
 Quadrupole moment (field-independent basis, Debye-Ang):
   XX=            -37.8110   YY=            -37.8110   ZZ=            -27.4016
   XY=              0.0000   XZ=              0.0000   YZ=              0.0000

 Normal termination of Gaussian 09 at Sat May  4 13:27:53 2013.
