 Gaussian 09, Revision A.02,
 Gaussian 09:  EM64L-G09RevA.02 11-Jun-2009

 ----------------------------------------------------------------------
 # ROMP2(RW) Gen GFinput Int=NoBasisTransform Int(Grid=Ultrafine) IOp(3
 /32=2,5/6=10,8/11=1,9/33=1) Maxdisk=128GB CBSextrapolate(Nmin=25,MinPo
 p)
 ----------------------------------------------------------------------

 ---
 Ga2
 ---
 Symbolic Z-matrix:
 Charge =  0 Multiplicity = 3

                         Standard orientation:
 ---------------------------------------------------------------------
 Center     Atomic      Atomic             Coordinates (Angstroms)
 Number     Number       Type             X           Y           Z
 ---------------------------------------------------------------------
      1         31           0        0.000000    0.000000    1.248085
      2         31           0        0.000000    0.000000   -1.248085
 ---------------------------------------------------------------------

 SCF Done:  E(ROHF) =  -3846.53763873     A.U. after   19 cycles
 E2 =    -0.1114336458D+00 EUMP2 =    -0.38466490723797D+04
 E2(CBS)=      -0.113544 CBS-Int=       0.001405 OIii=       0.367208

 The electronic state is 3-SGG.
 Alpha  occ. eigenvalues -- -378.82693-378.82693 -48.17712 -48.17712 -42.50327
 Alpha  occ. eigenvalues --  -42.50327 -42.50327 -42.50327 -42.50276 -42.50276
 Alpha  occ. eigenvalues --   -6.40467  -6.40461  -4.49357  -4.49294  -4.49293
 Alpha  occ. eigenvalues --   -4.49293  -4.49286  -4.49286  -1.21193  -1.20758
 Alpha  occ. eigenvalues --   -1.20758  -1.20301  -1.20301  -1.20198  -1.20198
 Alpha  occ. eigenvalues --   -1.20187  -1.20187  -1.19900  -0.56714  -0.37694
 Alpha  occ. eigenvalues --   -0.23005  -0.23005
 Alpha virt. eigenvalues --   -0.02552   0.01357   0.01853   0.01853   0.01975
 Alpha virt. eigenvalues --    0.01975   0.02243   0.03502   0.03519   0.03519
 Alpha virt. eigenvalues --    0.05304   0.07828   0.08047   0.08125   0.08125

 Mulliken atomic charges:
              1
     1  Ga   0.000000
     2  Ga   0.000000
 Sum of Mulliken atomic charges =   0.00000

 Dipole moment (field-independent basis, Debye):
    X=              0.0000    Y=              0.0000    Z=              0.0000  Tot=              0.0000
 Quadrupole moment (field-independent basis, Debye-Ang):
   XX=            -37.8101   YY=            -37.8101   ZZ=            -27.4016
   XY=              0.0000   XZ=              0.0000   YZ=              0.0000

 Normal termination of Gaussian 09 at Sun May  5 00:42:25 2013.
