 Gaussian 09, Revision A.02,
 Gaussian 09:  EM64L-G09RevA.02 11-Jun-2009

 ----------------------------------------------------------------------
 # ROMP2(RW) Gen GFinput Int=NoBasisTransform Int(Grid=Ultrafine) IOp(3
 /32=2,5/6=10,8/11=1,9/33=1) Maxdisk=128GB CBSextrapolate(Nmin=20,MinPo
 p)
 ----------------------------------------------------------------------

 ---
 Ge2
 ---
 Symbolic Z-matrix:
 Charge =  0 Multiplicity = 3

                         Standard orientation:
 ---------------------------------------------------------------------
 Center     Atomic      Atomic             Coordinates (Angstroms)
 Number     Number       Type             X           Y           Z
 ---------------------------------------------------------------------
      1         32           0        0.000000    0.000000    1.262200
      2         32           0        0.000000    0.000000   -1.262200
 ---------------------------------------------------------------------

 SCF Done:  E(ROHF) =  -4150.76796732     A.U. after   19 cycles
 E2 =    -0.1709032067D+00 EUMP2 =    -0.41509388705269D+04
 E2(CBS)=      -0.176237 CBS-Int=       0.003015 OIii=       0.818703

 The electronic state is 3-SGG.
 Alpha  occ. eigenvalues -- -405.24774-405.24774 -52.15295 -52.15295 -46.24032
 Alpha  occ. eigenvalues --  -46.24032 -46.24032 -46.24032 -46.23774 -46.23774
 Alpha  occ. eigenvalues --   -7.19491  -7.19485  -5.16930  -5.16930  -5.16926
 Alpha  occ. eigenvalues --   -5.16926  -5.16130  -5.16100  -1.64503  -1.64503
 Alpha  occ. eigenvalues --   -1.64446  -1.64446  -1.63814  -1.63814  -1.63742
 Alpha  occ. eigenvalues --   -1.63538  -1.63538  -1.63105  -0.69971  -0.52320
 Alpha  occ. eigenvalues --   -0.29315  -0.28225  -0.28225
 Alpha virt. eigenvalues --   -0.00326  -0.00326   0.03699   0.05049   0.05378
 Alpha virt. eigenvalues --    0.05378   0.06651   0.07843   0.07843   0.12084
 Alpha virt. eigenvalues --    0.14396   0.18457   0.18457   0.23343   0.23343

 Mulliken atomic charges:
              1
     1  Ge   0.000000
     2  Ge   0.000000
 Sum of Mulliken atomic charges =   0.00000

 Dipole moment (field-independent basis, Debye):
    X=              0.0000    Y=              0.0000    Z=              0.0000  Tot=              0.0000
 Quadrupole moment (field-independent basis, Debye-Ang):
   XX=            -35.6285   YY=            -35.6285   ZZ=            -40.5604
   XY=              0.0000   XZ=              0.0000   YZ=              0.0000

 Normal termination of Gaussian 09 at Sun Feb 24 14:34:02 2013.
