 Gaussian 09, Revision A.02,
 Gaussian 09:  EM64L-G09RevA.02 11-Jun-2009

 ----------------------------------------------------------------------
 # ROMP2(RW) Gen GFinput Int=NoBasisTransform Int(Grid=Ultrafine) IOp(3
 /32=2,5/6=10,8/11=1,9/33=1) Maxdisk=128GB CBSextrapolate(Nmin=25,MinPo
 p)
 ----------------------------------------------------------------------

 ---
 Ge2
 ---
 Symbolic Z-matrix:
 Charge =  0 Multiplicity = 1

                         Standard orientation:
 ---------------------------------------------------------------------
 Center     Atomic      Atomic             Coordinates (Angstroms)
 Number     Number       Type             X           Y           Z
 ---------------------------------------------------------------------
      1         32           0        0.000000    0.000000    1.222472
      2         32           0        0.000000    0.000000   -1.222472
 ---------------------------------------------------------------------

 SCF Done:  E(ROHF) =  -4150.73659653     A.U. after   15 cycles
 E2 =    -0.1825651610D+00 EUMP2 =    -0.41509191616916D+04
 E2(CBS)=      -0.186712 CBS-Int=       0.002584 OIii=       0.858809

 Unable to determine electronic state:  an orbital has unidentified symmetry.
 Alpha  occ. eigenvalues -- -405.24745-405.24745 -52.15320 -52.15320 -46.24040
 Alpha  occ. eigenvalues --  -46.24040 -46.23910 -46.23910 -46.23827 -46.23827
 Alpha  occ. eigenvalues --   -7.19400  -7.19392  -5.16961  -5.16955  -5.16416
 Alpha  occ. eigenvalues --   -5.16410  -5.16188  -5.16147  -1.64578  -1.64424
 Alpha  occ. eigenvalues --   -1.64340  -1.64292  -1.64094  -1.63774  -1.63613
 Alpha  occ. eigenvalues --   -1.63422  -1.63077  -1.62895  -0.66680  -0.49531
 Alpha  occ. eigenvalues --   -0.28576  -0.25498
 Alpha virt. eigenvalues --   -0.04484   0.02036   0.03340   0.03663   0.05275
 Alpha virt. eigenvalues --    0.05367   0.05531   0.06602   0.08166   0.08469
 Alpha virt. eigenvalues --    0.11964   0.14820   0.17426   0.17499   0.21934

 Mulliken atomic charges:
              1
     1  Ge   0.000000
     2  Ge   0.000000
 Sum of Mulliken atomic charges =   0.00000

 Dipole moment (field-independent basis, Debye):
    X=              0.0000    Y=              0.0000    Z=              0.0000  Tot=              0.0000
 Quadrupole moment (field-independent basis, Debye-Ang):
   XX=            -41.2218   YY=            -30.3327   ZZ=            -41.4253
   XY=              0.0000   XZ=              0.0000   YZ=              0.0000

 Normal termination of Gaussian 09 at Thu Aug 23 04:44:51 2012.
