 Gaussian 09, Revision A.02,
 Gaussian 09:  EM64L-G09RevA.02 11-Jun-2009

 ----------------------------------------------------------------------
 # ROMP2(RW) Gen GFinput Int=NoBasisTransform Int(Grid=Ultrafine) IOp(3
 /32=2,5/6=10,8/11=1,9/33=1) Maxdisk=128GB CBSextrapolate(Nmin=20,MinPo
 p)
 ----------------------------------------------------------------------

 ---
 Ge2
 ---
 Symbolic Z-matrix:
 Charge =  0 Multiplicity = 1

                         Standard orientation:
 ---------------------------------------------------------------------
 Center     Atomic      Atomic             Coordinates (Angstroms)
 Number     Number       Type             X           Y           Z
 ---------------------------------------------------------------------
      1         32           0        0.000000    0.000000    1.222472
      2         32           0        0.000000    0.000000   -1.222472
 ---------------------------------------------------------------------

 SCF Done:  E(ROHF) =  -4150.73640801     A.U. after   15 cycles
 E2 =    -0.1811462343D+00 EUMP2 =    -0.41509175542455D+04
 E2(CBS)=      -0.187198 CBS-Int=       0.003655 OIii=       0.942385

 Unable to determine electronic state:  an orbital has unidentified symmetry.
 Alpha  occ. eigenvalues -- -405.24737-405.24737 -52.15319 -52.15318 -46.24046
 Alpha  occ. eigenvalues --  -46.24046 -46.23906 -46.23906 -46.23816 -46.23816
 Alpha  occ. eigenvalues --   -7.19403  -7.19396  -5.16993  -5.16987  -5.16414
 Alpha  occ. eigenvalues --   -5.16408  -5.16167  -5.16126  -1.64601  -1.64448
 Alpha  occ. eigenvalues --   -1.64360  -1.64312  -1.64100  -1.63780  -1.63595
 Alpha  occ. eigenvalues --   -1.63404  -1.63059  -1.62876  -0.66691  -0.49525
 Alpha  occ. eigenvalues --   -0.28565  -0.25501
 Alpha virt. eigenvalues --   -0.04490   0.02038   0.03361   0.03857   0.05422
 Alpha virt. eigenvalues --    0.05661   0.05823   0.06883   0.08562   0.08848
 Alpha virt. eigenvalues --    0.12604   0.15631   0.20287   0.20356   0.24367

 Mulliken atomic charges:
              1
     1  Ge   0.000000
     2  Ge   0.000000
 Sum of Mulliken atomic charges =   0.00000

 Dipole moment (field-independent basis, Debye):
    X=              0.0000    Y=              0.0000    Z=              0.0000  Tot=              0.0000
 Quadrupole moment (field-independent basis, Debye-Ang):
   XX=            -41.2049   YY=            -30.3216   ZZ=            -41.4906
   XY=              0.0000   XZ=              0.0000   YZ=              0.0000

 Normal termination of Gaussian 09 at Thu Aug 23 10:46:00 2012.
