 Gaussian 09, Revision A.02,
 Gaussian 09:  EM64L-G09RevA.02 11-Jun-2009

 ----------------------------------------------------------------------
 # ROMP2(RW) Gen GFinput Int=NoBasisTransform Int(Grid=Ultrafine) IOp(3
 /32=2,5/6=10,8/11=1,9/33=1) Maxdisk=128GB CBSextrapolate(Nmin=25,MinPo
 p)
 ----------------------------------------------------------------------

 ---
 Ge2
 ---
 Symbolic Z-matrix:
 Charge =  0 Multiplicity = 3

                         Standard orientation:
 ---------------------------------------------------------------------
 Center     Atomic      Atomic             Coordinates (Angstroms)
 Number     Number       Type             X           Y           Z
 ---------------------------------------------------------------------
      1         32           0        0.000000    0.000000    1.262200
      2         32           0        0.000000    0.000000   -1.262200
 ---------------------------------------------------------------------

 SCF Done:  E(ROHF) =  -4150.76812168     A.U. after   19 cycles
 E2 =    -0.1721635717D+00 EUMP2 =    -0.41509402852560D+04
 E2(CBS)=      -0.175855 CBS-Int=       0.002164 OIii=       0.753097

 The electronic state is 3-SGG.
 Alpha  occ. eigenvalues -- -405.24784-405.24784 -52.15299 -52.15299 -46.24033
 Alpha  occ. eigenvalues --  -46.24033 -46.24033 -46.24033 -46.23786 -46.23786
 Alpha  occ. eigenvalues --   -7.19490  -7.19483  -5.16918  -5.16918  -5.16913
 Alpha  occ. eigenvalues --   -5.16913  -5.16152  -5.16123  -1.64486  -1.64486
 Alpha  occ. eigenvalues --   -1.64429  -1.64429  -1.63822  -1.63822  -1.63758
 Alpha  occ. eigenvalues --   -1.63546  -1.63546  -1.63121  -0.69961  -0.52325
 Alpha  occ. eigenvalues --   -0.29327  -0.28220  -0.28220
 Alpha virt. eigenvalues --   -0.00321  -0.00321   0.03534   0.04907   0.05113
 Alpha virt. eigenvalues --    0.05113   0.06398   0.07488   0.07488   0.11447
 Alpha virt. eigenvalues --    0.13865   0.15918   0.15918   0.21114   0.21114

 Mulliken atomic charges:
              1
     1  Ge   0.000000
     2  Ge   0.000000
 Sum of Mulliken atomic charges =   0.00000

 Dipole moment (field-independent basis, Debye):
    X=              0.0000    Y=              0.0000    Z=              0.0000  Tot=              0.0000
 Quadrupole moment (field-independent basis, Debye-Ang):
   XX=            -35.6448   YY=            -35.6448   ZZ=            -40.4933
   XY=              0.0000   XZ=              0.0000   YZ=              0.0000

 Normal termination of Gaussian 09 at Sun Feb 24 21:41:14 2013.
