 Gaussian 09, Revision A.02,
 Gaussian 09:  EM64L-G09RevA.02 11-Jun-2009

 ----------------------------------------------------------------------
 # ROCCSD(T,RW) Gen GFinput Int=NoBasisTransform Int(Grid=Ultrafine) IO
 p(3/32=2,5/6=10,8/11=1,9/33=1) Maxdisk=128GB Opt=(Tight,Z-Matrix)
 ----------------------------------------------------------------------

 ---
 Ge2
 ---
 Symbolic Z-matrix:
 Charge =  0 Multiplicity = 1

 SCF Done:  E(ROHF) =  -4150.72531883     A.U. after   14 cycles
 E2 =    -0.1683051585D+00 EUMP2 =    -0.41508936239847D+04
 CCSD(T)= -0.41509326909D+04
 SCF Done:  E(ROHF) =  -4150.72532521     A.U. after    8 cycles
 E2 =    -0.1683060614D+00 EUMP2 =    -0.41508936312666D+04
 CCSD(T)= -0.41509326981D+04
 SCF Done:  E(ROHF) =  -4150.72531244     A.U. after    8 cycles
 E2 =    -0.1683042557D+00 EUMP2 =    -0.41508936167005D+04
 CCSD(T)= -0.41509326838D+04
 SCF Done:  E(ROHF) =  -4150.73523403     A.U. after   12 cycles
 E2 =    -0.1712907360D+00 EUMP2 =    -0.41509065247679D+04
 CCSD(T)= -0.41509454839D+04
 SCF Done:  E(ROHF) =  -4150.73544298     A.U. after   12 cycles
 E2 =    -0.1723218447D+00 EUMP2 =    -0.41509077648261D+04
 CCSD(T)= -0.41509467683D+04
 SCF Done:  E(ROHF) =  -4150.73429777     A.U. after   12 cycles
 E2 =    -0.1737590710D+00 EUMP2 =    -0.41509080568439D+04
 CCSD(T)= -0.41509471502D+04
 SCF Done:  E(ROHF) =  -4150.73086767     A.U. after   12 cycles
 E2 =    -0.1757942193D+00 EUMP2 =    -0.41509066618850D+04
 CCSD(T)= -0.41509459105D+04
 SCF Done:  E(ROHF) =  -4150.73459541     A.U. after   12 cycles
 E2 =    -0.1735052750D+00 EUMP2 =    -0.41509081006848D+04
 CCSD(T)= -0.41509471765D+04
 SCF Done:  E(ROHF) =  -4150.73459386     A.U. after    8 cycles
 E2 =    -0.1735066798D+00 EUMP2 =    -0.41509081005413D+04
 CCSD(T)= -0.41509471765D+04
 SCF Done:  E(ROHF) =  -4150.73463524     A.U. after   10 cycles
 E2 =    -0.1734687719D+00 EUMP2 =    -0.41509081040166D+04
 CCSD(T)= -0.41509471774D+04
 SCF Done:  E(ROHF) =  -4150.73463373     A.U. after    8 cycles
 E2 =    -0.1734701733D+00 EUMP2 =    -0.41509081039029D+04
 CCSD(T)= -0.41509471774D+04
 SCF Done:  E(ROHF) =  -4150.73465976     A.U. after   10 cycles
 E2 =    -0.1734459429D+00 EUMP2 =    -0.41509081057077D+04
 CCSD(T)= -0.41509471775D+04
 SCF Done:  E(ROHF) =  -4150.73465827     A.U. after    8 cycles
 E2 =    -0.1734473422D+00 EUMP2 =    -0.41509081056128D+04
 CCSD(T)= -0.41509471775D+04
 SCF Done:  E(ROHF) =  -4150.73466126     A.U. after    8 cycles
 E2 =    -0.1734445436D+00 EUMP2 =    -0.41509081058015D+04
 CCSD(T)= -0.41509471775D+04

                         Standard orientation:
 ---------------------------------------------------------------------
 Center     Atomic      Atomic             Coordinates (Angstroms)
 Number     Number       Type             X           Y           Z
 ---------------------------------------------------------------------
      1         32           0        0.000000    0.000000    1.222472
      2         32           0        0.000000    0.000000   -1.222472
 ---------------------------------------------------------------------

 Unable to determine electronic state:  an orbital has unidentified symmetry.
 Alpha  occ. eigenvalues -- -405.24832-405.24832 -52.15396 -52.15396 -46.24123
 Alpha  occ. eigenvalues --  -46.24123 -46.23983 -46.23983 -46.23895 -46.23895
 Alpha  occ. eigenvalues --   -7.19441  -7.19434  -5.17059  -5.17053  -5.16440
 Alpha  occ. eigenvalues --   -5.16433  -5.16176  -5.16135  -1.64668  -1.64517
 Alpha  occ. eigenvalues --   -1.64420  -1.64372  -1.64141  -1.63821  -1.63592
 Alpha  occ. eigenvalues --   -1.63401  -1.63057  -1.62872  -0.66718  -0.49525
 Alpha  occ. eigenvalues --   -0.28542  -0.25505
 Alpha virt. eigenvalues --   -0.04522   0.02059   0.03423   0.04311   0.06283
 Alpha virt. eigenvalues --    0.06815   0.06982   0.07783   0.10064   0.10283
 Alpha virt. eigenvalues --    0.13843   0.17933   0.23088   0.23152   0.27430

 Mulliken atomic charges:
              1
     1  Ge   0.000000
     2  Ge   0.000000
 Sum of Mulliken atomic charges =   0.00000

 Dipole moment (field-independent basis, Debye):
    X=              0.0000    Y=              0.0000    Z=              0.0000  Tot=              0.0000
 Quadrupole moment (field-independent basis, Debye-Ang):
   XX=            -30.2554   YY=            -41.2903   ZZ=            -41.5781
   XY=              0.0000   XZ=              0.0000   YZ=              0.0000

 057\MP4SDQ=-4150.9333554\CCSD=-4150.9344922\CCSD(T)=-4150.9471775\RMSD
 Normal termination of Gaussian 09 at Wed Aug 22 22:22:22 2012.
