 Gaussian 09, Revision A.02,
 Gaussian 09:  EM64L-G09RevA.02 11-Jun-2009

 ----------------------------------------------------------------------
 # ROMP2(RW) Gen GFinput Int=NoBasisTransform Int(Grid=Ultrafine) IOp(3
 /32=2,5/6=10,8/11=1,9/33=1) Maxdisk=128GB CBSextrapolate(Nmin=20,MinPo
 p)
 ----------------------------------------------------------------------

 ----
 GeH4
 ----
 Symbolic Z-matrix:
 Charge =  0 Multiplicity = 1

                         Standard orientation:
 ---------------------------------------------------------------------
 Center     Atomic      Atomic             Coordinates (Angstroms)
 Number     Number       Type             X           Y           Z
 ---------------------------------------------------------------------
      1         32           0        0.000000    0.000000    0.000000
      2          1           0        0.889680    0.889680    0.889680
      3          1           0       -0.889680   -0.889680    0.889680
      4          1           0       -0.889680    0.889680   -0.889680
      5          1           0        0.889680   -0.889680   -0.889680
 ---------------------------------------------------------------------

 SCF Done:  E(ROHF) =  -2077.72267338     A.U. after   13 cycles
 E2 =    -0.1529569919D+00 EUMP2 =    -0.20778756303718D+04
 E2(CBS)=      -0.156035 CBS-Int=       0.001683 OIii=       1.274020

 The electronic state is 1-A1.
 Alpha  occ. eigenvalues -- -405.22689 -52.13408 -46.22148 -46.22148 -46.22148
 Alpha  occ. eigenvalues --   -7.17757  -5.15288  -5.15288  -5.15288  -1.62817
 Alpha  occ. eigenvalues --   -1.62817  -1.62817  -1.62450  -1.62450  -0.73544
 Alpha  occ. eigenvalues --   -0.47186  -0.47186  -0.47186
 Alpha virt. eigenvalues --    0.01263   0.02059   0.02059   0.02059   0.05938
 Alpha virt. eigenvalues --    0.06305   0.06305   0.06305   0.08542   0.08542
 Alpha virt. eigenvalues --    0.08542   0.15161   0.16045   0.16045   0.16045

 Mulliken atomic charges:
              1
     1  Ge   0.761405
     2  H   -0.190351
     3  H   -0.190351
     4  H   -0.190351
     5  H   -0.190351
 Sum of Mulliken atomic charges =   0.00000

 Dipole moment (field-independent basis, Debye):
    X=              0.0000    Y=              0.0000    Z=              0.0000  Tot=              0.0000
 Quadrupole moment (field-independent basis, Debye-Ang):
   XX=            -21.1975   YY=            -21.1975   ZZ=            -21.1975
   XY=              0.0000   XZ=              0.0000   YZ=              0.0000

 Normal termination of Gaussian 09 at Thu Aug 23 11:13:46 2012.
