 Gaussian 09, Revision A.02,
 Gaussian 09:  EM64L-G09RevA.02 11-Jun-2009

 ----------------------------------------------------------------------
 # ROCCSD(T,RW) Gen GFinput Int=NoBasisTransform Int(Grid=Ultrafine) IO
 p(3/32=2,5/6=10,8/11=1,9/33=1) Maxdisk=128GB Opt=(Tight,Z-Matrix)
 ----------------------------------------------------------------------

 ----
 GeH4
 ----
 Symbolic Z-matrix:
 Charge =  0 Multiplicity = 1

 SCF Done:  E(ROHF) =  -2077.72029906     A.U. after   11 cycles
 E2 =    -0.1477619819D+00 EUMP2 =    -0.20778680610413D+04
 CCSD(T)= -0.20778979228D+04
 SCF Done:  E(ROHF) =  -2077.72030615     A.U. after    7 cycles
 E2 =    -0.1477620822D+00 EUMP2 =    -0.20778680682326D+04
 CCSD(T)= -0.20778979313D+04
 SCF Done:  E(ROHF) =  -2077.72029195     A.U. after    7 cycles
 E2 =    -0.1477618819D+00 EUMP2 =    -0.20778680538333D+04
 CCSD(T)= -0.20778979144D+04
 SCF Done:  E(ROHF) =  -2077.72181162     A.U. after   10 cycles
 E2 =    -0.1478601117D+00 EUMP2 =    -0.20778696717325D+04
 CCSD(T)= -0.20779001925D+04
 SCF Done:  E(ROHF) =  -2077.72149647     A.U. after   10 cycles
 E2 =    -0.1479080833D+00 EUMP2 =    -0.20778694045530D+04
 CCSD(T)= -0.20779001334D+04
 SCF Done:  E(ROHF) =  -2077.72174543     A.U. after    9 cycles
 E2 =    -0.1478748471D+00 EUMP2 =    -0.20778696202767D+04
 CCSD(T)= -0.20779002085D+04
 SCF Done:  E(ROHF) =  -2077.72174370     A.U. after    7 cycles
 E2 =    -0.1478751572D+00 EUMP2 =    -0.20778696188605D+04
 CCSD(T)= -0.20779002085D+04
 SCF Done:  E(ROHF) =  -2077.72174823     A.U. after    7 cycles
 E2 =    -0.1478743390D+00 EUMP2 =    -0.20778696225696D+04
 CCSD(T)= -0.20779002086D+04
 SCF Done:  E(ROHF) =  -2077.72174653     A.U. after    7 cycles
 E2 =    -0.1478746484D+00 EUMP2 =    -0.20778696211775D+04
 CCSD(T)= -0.20779002086D+04
 SCF Done:  E(ROHF) =  -2077.72174858     A.U. after    7 cycles
 E2 =    -0.1478742758D+00 EUMP2 =    -0.20778696228524D+04
 CCSD(T)= -0.20779002086D+04
 SCF Done:  E(ROHF) =  -2077.72174688     A.U. after    7 cycles
 E2 =    -0.1478745851D+00 EUMP2 =    -0.20778696214632D+04
 CCSD(T)= -0.20779002086D+04
 SCF Done:  E(ROHF) =  -2077.72175026     A.U. after    7 cycles
 E2 =    -0.1478739668D+00 EUMP2 =    -0.20778696242270D+04
 CCSD(T)= -0.20779002086D+04

                         Standard orientation:
 ---------------------------------------------------------------------
 Center     Atomic      Atomic             Coordinates (Angstroms)
 Number     Number       Type             X           Y           Z
 ---------------------------------------------------------------------
      1         32           0        0.000000    0.000000    0.000000
      2          1           0        0.889680    0.889680    0.889680
      3          1           0       -0.889680   -0.889680    0.889680
      4          1           0       -0.889680    0.889680   -0.889680
      5          1           0        0.889680   -0.889680   -0.889680
 ---------------------------------------------------------------------

 The electronic state is 1-A1.
 Alpha  occ. eigenvalues -- -405.22672 -52.13401 -46.22137 -46.22137 -46.22137
 Alpha  occ. eigenvalues --   -7.17778  -5.15306  -5.15306  -5.15306  -1.62837
 Alpha  occ. eigenvalues --   -1.62837  -1.62837  -1.62474  -1.62474  -0.73553
 Alpha  occ. eigenvalues --   -0.47189  -0.47189  -0.47189
 Alpha virt. eigenvalues --    0.01585   0.02509   0.02509   0.02509   0.07025
 Alpha virt. eigenvalues --    0.07025   0.07025   0.07411   0.10851   0.10851
 Alpha virt. eigenvalues --    0.10851   0.17272   0.18748   0.18748   0.18748

 Mulliken atomic charges:
              1
     1  Ge   0.505283
     2  H   -0.126321
     3  H   -0.126321
     4  H   -0.126321
     5  H   -0.126321
 Sum of Mulliken atomic charges =   0.00000

 Dipole moment (field-independent basis, Debye):
    X=              0.0000    Y=              0.0000    Z=              0.0000  Tot=              0.0000
 Quadrupole moment (field-independent basis, Debye-Ang):
   XX=            -21.2111   YY=            -21.2111   ZZ=            -21.2111
   XY=              0.0000   XZ=              0.0000   YZ=              0.0000

 2077.896115\CCSD(T)=-2077.9002086\RMSD=2.418e-11\RMSF=4.807e-06\PG=TD
 Normal termination of Gaussian 09 at Thu Aug 23 00:18:32 2012.
