 Gaussian 09, Revision A.02,
 Gaussian 09:  EM64L-G09RevA.02 11-Jun-2009

 ----------------------------------------------------------------------
 # ROMP2(RW) Gen GFinput Int=NoBasisTransform Int(Grid=Ultrafine) IOp(3
 /32=2,5/6=10,8/11=1,9/33=1) Maxdisk=128GB CBSextrapolate(Nmin=25,MinPo
 p)
 ----------------------------------------------------------------------

 ----
 GeH4
 ----
 Symbolic Z-matrix:
 Charge =  0 Multiplicity = 1

                         Standard orientation:
 ---------------------------------------------------------------------
 Center     Atomic      Atomic             Coordinates (Angstroms)
 Number     Number       Type             X           Y           Z
 ---------------------------------------------------------------------
      1         32           0        0.000000    0.000000    0.000000
      2          1           0        0.889680    0.889680    0.889680
      3          1           0       -0.889680   -0.889680    0.889680
      4          1           0       -0.889680    0.889680   -0.889680
      5          1           0        0.889680   -0.889680   -0.889680
 ---------------------------------------------------------------------

 SCF Done:  E(ROHF) =  -2077.72273692     A.U. after   13 cycles
 E2 =    -0.1537312145D+00 EUMP2 =    -0.20778764681317D+04
 E2(CBS)=      -0.155987 CBS-Int=       0.001282 OIii=       1.205326

 The electronic state is 1-A1.
 Alpha  occ. eigenvalues -- -405.22708 -52.13415 -46.22157 -46.22157 -46.22157
 Alpha  occ. eigenvalues --   -7.17755  -5.15286  -5.15286  -5.15286  -1.62815
 Alpha  occ. eigenvalues --   -1.62815  -1.62815  -1.62449  -1.62449  -0.73544
 Alpha  occ. eigenvalues --   -0.47186  -0.47186  -0.47186
 Alpha virt. eigenvalues --    0.01247   0.02005   0.02005   0.02005   0.05882
 Alpha virt. eigenvalues --    0.06142   0.06142   0.06142   0.08162   0.08162
 Alpha virt. eigenvalues --    0.08162   0.14480   0.15562   0.15562   0.15562

 Mulliken atomic charges:
              1
     1  Ge   0.334283
     2  H   -0.083571
     3  H   -0.083571
     4  H   -0.083571
     5  H   -0.083571
 Sum of Mulliken atomic charges =   0.00000

 Dipole moment (field-independent basis, Debye):
    X=              0.0000    Y=              0.0000    Z=              0.0000  Tot=              0.0000
 Quadrupole moment (field-independent basis, Debye-Ang):
   XX=            -21.1969   YY=            -21.1969   ZZ=            -21.1969
   XY=              0.0000   XZ=              0.0000   YZ=              0.0000

 Normal termination of Gaussian 09 at Thu Aug 23 11:33:24 2012.
