 Gaussian 09, Revision A.02,
 Gaussian 09:  EM64L-G09RevA.02 11-Jun-2009

 ----------------------------------------------------------------------
 # ROMP2(RW) Gen GFinput Int=NoBasisTransform Int(Grid=Ultrafine) IOp(3
 /32=2,5/6=10,8/11=1,9/33=1) Maxdisk=128GB CBSextrapolate(Nmin=25,MinPo
 p)
 ----------------------------------------------------------------------

 --------
 GeO 1Sg+
 --------
 Symbolic Z-matrix:
 Charge =  0 Multiplicity = 1

                         Standard orientation:
 ---------------------------------------------------------------------
 Center     Atomic      Atomic             Coordinates (Angstroms)
 Number     Number       Type             X           Y           Z
 ---------------------------------------------------------------------
      1         32           0        0.000000    0.000000    0.324930
      2          8           0        0.000000    0.000000   -1.299720
 ---------------------------------------------------------------------

 SCF Done:  E(ROHF) =  -2150.30011031     A.U. after   17 cycles
 E2 =    -0.3853103267D+00 EUMP2 =    -0.21506854206402D+04
 E2(CBS)=      -0.389450 CBS-Int=       0.001983 OIii=       1.845062

 The electronic state is 1-SG.
 Alpha  occ. eigenvalues -- -405.26647 -52.17215 -46.25929 -46.25929 -46.25630
 Alpha  occ. eigenvalues --  -20.52758  -7.21680  -5.19115  -5.19115  -5.18347
 Alpha  occ. eigenvalues --   -1.66861  -1.66861  -1.66762  -1.66000  -1.66000
 Alpha  occ. eigenvalues --   -1.22371  -0.61004  -0.44856  -0.44856  -0.42573
 Alpha virt. eigenvalues --    0.01236   0.01236   0.03205   0.05084   0.06129
 Alpha virt. eigenvalues --    0.06129   0.11397   0.11593   0.11593   0.13247
 Alpha virt. eigenvalues --    0.13247   0.13442   0.16781   0.16781   0.19293

 Mulliken atomic charges:
              1
     1  Ge   0.482298
     2  O   -0.482298
 Sum of Mulliken atomic charges =   0.00000

 Dipole moment (field-independent basis, Debye):
    X=              0.0000    Y=              0.0000    Z=              4.2143  Tot=              4.2143
 Quadrupole moment (field-independent basis, Debye-Ang):
   XX=            -20.1276   YY=            -20.1276   ZZ=            -28.4027
   XY=              0.0000   XZ=              0.0000   YZ=              0.0000

 Normal termination of Gaussian 09 at Fri May  3 15:28:10 2013.
