 ----------------------------------------------------------------------
 #p apfd/ugbs1p opt=tight freq=(vibrot,anharm) int=(acc2e=12,grid=29997
 4) test gfprint gfinput output=pickett
 ----------------------------------------------------------------------

 (Enter /share/apps/gaussian/gdvh12/gdv/l101.exe)
 -----------------------------------------
 H2CCCCN pre-optimized at apfd/aug-cc-pVTZ
 -----------------------------------------
 Charge =  0 Multiplicity = 2

 SCF Done:  E(UAPFD) =  -208.152481605     A.U. after   16 cycles
 SCF Done:  E(UAPFD) =  -208.152484662     A.U. after   11 cycles
 SCF Done:  E(UAPFD) =  -208.152484916     A.U. after    9 cycles
 SCF Done:  E(UAPFD) =  -208.152484920     A.U. after    5 cycles
 Optimization completed.
    -- Stationary point found.
 Normal termination of Gaussian DV at Sun Jul 28 10:16:47 2013.

 ----------------------------------------------------------------------
 #P Geom=AllCheck Guess=TCheck SCRF=Check Test GenChk UAPFD/UGBS1P Freq
 ----------------------------------------------------------------------

 Structure from the checkpoint file:  H2CCCCN.chk
 -----------------------------------------
 H2CCCCN pre-optimized at apfd/aug-cc-pVTZ
 -----------------------------------------
 Charge =  0 Multiplicity = 2

                         Standard orientation:
 ---------------------------------------------------------------------
 Center     Atomic      Atomic             Coordinates (Angstroms)
 Number     Number       Type             X           Y           Z
 ---------------------------------------------------------------------
      1          1           0        0.000000    0.930396   -3.028449
      2          1           0        0.000000   -0.930396   -3.028449
      3          6           0        0.000000    0.000000   -2.475368
      4          6           0        0.000000    0.000000   -1.126858
      5          6           0        0.000000    0.000000    0.103565
      6          6           0        0.000000    0.000000    1.455391
      7          7           0        0.000000    0.000000    2.616646
 ---------------------------------------------------------------------

 SCF Done:  E(UAPFD) =  -208.152484920     A.U. after    1 cycles
 ******    1 imaginary frequencies (negative Signs) ******

                      1                      2                      3
                     B1                     B2                     B1
 Frequencies --    -94.6999               125.1159               248.0532
 Red. masses --      9.2601                 6.2965                 6.4494
 Frc consts  --      0.0489                 0.0581                 0.2338
 IR Inten    --      0.0023                 0.2537                 0.2164

                      4                      5                      6
                     B2                     B1                     B2
 Frequencies --    293.8975               382.0157               413.8372
 Red. masses --      3.5512                 8.7897                10.7722
 Frc consts  --      0.1807                 0.7558                 1.0870
 IR Inten    --      1.3382                10.6952                 7.9457

                      7                      8                      9
                     A1                     B1                     B2
 Frequencies --    723.3859               752.1319              1005.7103
 Red. masses --      6.7499                 1.3265                 1.4528
 Frc consts  --      2.0811                 0.4421                 0.8658
 IR Inten    --      0.3184                45.5106                 0.0814

                     10                     11                     12
                     A1                     A1                     A1
 Frequencies --   1302.7120              1460.5287              2053.7621
 Red. masses --      2.8770                 1.4921                11.9577
 Frc consts  --      2.8767                 1.8753                29.7165
 IR Inten    --      0.9016                 1.8552                 1.9587

                     13                     14                     15
                     A1                     A1                     B2
 Frequencies --   2242.1544              3151.1200              3245.5564
 Red. masses --     12.5431                 1.0520                 1.1173
 Frc consts  --     37.1524                 6.1543                 6.9343
 IR Inten    --     23.3845                 0.6973                 1.4146

 - Thermochemistry -
 -------------------
 Temperature   298.150 Kelvin.  Pressure   1.00000 Atm.
 Atom     1 has atomic number  1 and mass   1.00783

 Molecular mass:    64.01872 amu.
 Principal axes and moments of inertia in atomic units:
                           1         2         3
     Eigenvalues --     6.23087 814.60068 820.83156
           X            0.00000   0.00000   1.00000
           Y            0.00000   1.00000   0.00000
           Z            1.00000   0.00000   0.00000
 This molecule is an asymmetric top.
 Rotational symmetry number  2.
 Rotational temperatures (Kelvin)     13.90075     0.10633     0.10552
 Rotational constants (GHZ):         289.64496     2.21549     2.19867
    1 imaginary frequencies ignored.
 Zero-point vibrational energy     104075.0 (Joules/Mol)
                                   24.87452 (Kcal/Mol)
 Warning -- explicit consideration of   5 degrees of freedom as
           vibrations may cause significant error
 Vibrational temperatures:    180.01   356.89   422.85   549.63   595.42
          (Kelvin)           1040.79  1082.15  1446.99  1874.31  2101.37
                             2954.90  3225.96  4533.75  4669.63

 Zero-point correction=                           0.039640 (Hartree/Particle)
 Thermal correction to Energy=                    0.044951
 Thermal correction to Enthalpy=                  0.045896
 Thermal correction to Gibbs Free Energy=         0.012560
 Sum of electronic and zero-point Energies=           -208.112845
 Sum of electronic and thermal Energies=              -208.107534
 Sum of electronic and thermal Enthalpies=            -208.106589
 Sum of electronic and thermal Free Energies=         -208.139925

                     E (Thermal)             CV                S
                      KCal/Mol        Cal/Mol-Kelvin    Cal/Mol-Kelvin
 Total                   28.207             16.426             70.160
 Electronic               0.000              0.000              1.377
 Translational            0.889              2.981             38.389
 Rotational               0.889              2.981             21.571
 Vibrational             26.430             10.464              8.823
 Vibration     1          0.610              1.928              3.020
 Vibration     2          0.662              1.766              1.744
 Vibration     3          0.689              1.685              1.451
 Vibration     4          0.751              1.509              1.031
 Vibration     5          0.777              1.440              0.913

 SCF Done:  E(UAPFD) =  -208.152483983     A.U. after    6 cycles
 SCF Done:  E(UAPFD) =  -208.152483983     A.U. after    8 cycles
 SCF Done:  E(UAPFD) =  -208.152483825     A.U. after   18 cycles
 SCF Done:  E(UAPFD) =  -208.152483825     A.U. after    6 cycles
 SCF Done:  E(UAPFD) =  -208.152483512     A.U. after   18 cycles

 Alpha  occ. eigenvalues --  -14.38025 -10.26914 -10.26681 -10.26581 -10.26472
 Alpha  occ. eigenvalues --   -0.95283  -0.86016  -0.78615  -0.67573  -0.53472
 Alpha  occ. eigenvalues --   -0.50068  -0.43397  -0.41326  -0.40302  -0.36977
 Alpha  occ. eigenvalues --   -0.31320  -0.26315
 Alpha virt. eigenvalues --   -0.06057  -0.02404  -0.01058   0.01625   0.02407
 Alpha virt. eigenvalues --    0.03485   0.04633   0.05663   0.05663   0.06149
 Alpha virt. eigenvalues --    0.06222   0.08057   0.08062   0.08183   0.09167

  Beta  occ. eigenvalues --  -14.37458 -10.26977 -10.26846 -10.26051 -10.25616
  Beta  occ. eigenvalues --   -0.94396  -0.84929  -0.76258  -0.67034  -0.52810
  Beta  occ. eigenvalues --   -0.49547  -0.40966  -0.40895  -0.39494  -0.34112
  Beta  occ. eigenvalues --   -0.30961
  Beta virt. eigenvalues --   -0.14230  -0.06041  -0.00774  -0.00332   0.01747
  Beta virt. eigenvalues --    0.02483   0.04185   0.04701   0.05690   0.05928
  Beta virt. eigenvalues --    0.06401   0.06597   0.08177   0.08205   0.08282

 Mulliken charges and spin densities:
              1          2
     1  H    0.110157  -0.049027
     2  H    0.110157  -0.049027
     3  C    0.184060   0.873942
     4  C    0.295460  -0.362112
     5  C   -1.041709   0.427763
     6  C    0.162584  -0.128077
     7  N    0.179291   0.286536
 Sum of Mulliken charges =   0.00000 spin densities =   1.000000

 Dipole moment (field-independent basis, Debye):
    X=              0.0007    Y=              0.0000    Z=             -4.6393  Tot=              4.6393
 Quadrupole moment (field-independent basis, Debye-Ang):
   XX=            -29.2064   YY=            -27.2862   ZZ=            -30.5485
   XY=              0.0000   XZ=              0.0128   YZ=              0.0000

  Exact polarizability:  33.077   0.000  34.534  -0.010   0.000 115.949
 Approx polarizability:  43.758   0.000  46.068  -0.096   0.000 206.410

 SCF Done:  E(UAPFD) =  -208.152483512     A.U. after    8 cycles
