 Gaussian 09, Revision A.02,
 Gaussian 09:  EM64L-G09RevA.02 11-Jun-2009

 ----------------------------------------------------------------------
 # ROMP2(RW) Gen GFinput Int=NoBasisTransform Int(Grid=Ultrafine) IOp(3
 /32=2,5/6=10,8/11=1,9/33=1) Maxdisk=128GB CBSextrapolate(Nmin=25,MinPo
 p)
 ----------------------------------------------------------------------

 ------
 H-Ga=O
 ------
 Symbolic Z-matrix:
 Charge =  0 Multiplicity = 1

                         Standard orientation:
 ---------------------------------------------------------------------
 Center     Atomic      Atomic             Coordinates (Angstroms)
 Number     Number       Type             X           Y           Z
 ---------------------------------------------------------------------
      1          1           0        0.000000    0.000000    1.811895
      2         31           0        0.000000    0.000000    0.291115
      3          8           0        0.000000    0.000000   -1.354556
 ---------------------------------------------------------------------

 SCF Done:  E(ROHF) =  -1998.71535063     A.U. after   17 cycles
 E2 =    -0.3461451417D+00 EUMP2 =    -0.19990614957672D+04
 E2(CBS)=      -0.350049 CBS-Int=       0.001831 OIii=       1.899996

 The electronic state is 1-SG.
 Alpha  occ. eigenvalues -- -378.84493 -48.19774 -42.52597 -42.52597 -42.52080
 Alpha  occ. eigenvalues --  -20.48968  -6.42654  -4.51966  -4.51966  -4.51323
 Alpha  occ. eigenvalues --   -1.26968  -1.23486  -1.23486  -1.22694  -1.22694
 Alpha  occ. eigenvalues --   -1.12273  -0.58922  -0.45340  -0.40704  -0.40704
 Alpha virt. eigenvalues --    0.00546   0.01180   0.01180   0.02067   0.03432
 Alpha virt. eigenvalues --    0.03432   0.03926   0.05227   0.07432   0.09262
 Alpha virt. eigenvalues --    0.09262   0.09481   0.09481   0.09811   0.11090

 Mulliken atomic charges:
              1
     1  H    0.066830
     2  Ga   0.535795
     3  O   -0.602625
 Sum of Mulliken atomic charges =   0.00000

 Dipole moment (field-independent basis, Debye):
    X=              0.0000    Y=              0.0000    Z=              5.7059  Tot=              5.7059
 Quadrupole moment (field-independent basis, Debye-Ang):
   XX=            -19.4860   YY=            -19.4860   ZZ=            -29.0279
   XY=              0.0000   XZ=              0.0000   YZ=              0.0000

 Normal termination of Gaussian 09 at Wed May 15 06:45:24 2013.
