 ----------------------------------------------------------------------
 # ROMP2(RW) Gen GFinput Int=NoBasisTransform Int(Grid=Ultrafine) IOp(3
 /32=2,5/6=10,8/11=1,9/33=1) Maxdisk=128GB CBSextrapolate(Nmin=20,MinPo
 p)
 ----------------------------------------------------------------------

 99/5=1,9=1/99;
 ------
 H-Ga=O
 ------
 Charge =  0 Multiplicity = 1

                         Standard orientation:
 ---------------------------------------------------------------------
 Center     Atomic      Atomic             Coordinates (Angstroms)
 Number     Number       Type             X           Y           Z
 ---------------------------------------------------------------------
      1          1           0        0.000000    0.000000    1.811895
      2         31           0        0.000000    0.000000    0.291115
      3          8           0        0.000000    0.000000   -1.354556
 ---------------------------------------------------------------------

 SCF Done:  E(ROHF) =  -1998.71515680     A.U. after   17 cycles
 E2 =    -0.3435874693D+00 EUMP2 =    -0.19990587442672D+04
 E2(CBS)=      -0.349722 CBS-Int=       0.002756 OIii=       1.996118

 The electronic state is 1-SG.
 Alpha  occ. eigenvalues -- -378.84507 -48.19787 -42.52617 -42.52617 -42.52077
 Alpha  occ. eigenvalues --  -20.48964  -6.42662  -4.51996  -4.51996  -4.51278
 Alpha  occ. eigenvalues --   -1.26941  -1.23526  -1.23526  -1.22679  -1.22679
 Alpha  occ. eigenvalues --   -1.12254  -0.58937  -0.45324  -0.40694  -0.40694
 Alpha virt. eigenvalues --    0.00586   0.01188   0.01188   0.02070   0.03493
 Alpha virt. eigenvalues --    0.03493   0.04192   0.05360   0.07483   0.09530
 Alpha virt. eigenvalues --    0.09530   0.09641   0.09641   0.10202   0.11033

 Mulliken charges and spin densities:
              1          2
     1  H   -0.126654   0.000000
     2  Ga   0.999174   0.000000
     3  O   -0.872519   0.000000
 Sum of Mulliken charges =   0.00000 spin densities =   0.000000

 Dipole moment (field-independent basis, Debye):
    X=              0.0000    Y=              0.0000    Z=              5.7103  Tot=              5.7103
 Quadrupole moment (field-independent basis, Debye-Ang):
   XX=            -19.4874   YY=            -19.4874   ZZ=            -29.0249
   XY=              0.0000   XZ=              0.0000   YZ=              0.0000

 Normal termination of Gaussian DV at Sun May  5 20:21:26 2013.
