 Gaussian 09, Revision A.02,
 Gaussian 09:  EM64L-G09RevA.02 11-Jun-2009

 ----------------------------------------------------------------------
 # ROMP2(RW) Gen GFinput Int=NoBasisTransform Int(Grid=Ultrafine) IOp(3
 /32=2,5/6=10,8/11=1,9/33=1) Maxdisk=128GB CBSextrapolate(Nmin=25,MinPo
 p)
 ----------------------------------------------------------------------

 ------
 H-Ga=O
 ------
 Symbolic Z-matrix:
 Charge =  0 Multiplicity = 1

                         Standard orientation:
 ---------------------------------------------------------------------
 Center     Atomic      Atomic             Coordinates (Angstroms)
 Number     Number       Type             X           Y           Z
 ---------------------------------------------------------------------
      1          1           0        0.000000    0.000000    1.811895
      2         31           0        0.000000    0.000000    0.291115
      3          8           0        0.000000    0.000000   -1.354556
 ---------------------------------------------------------------------

 SCF Done:  E(ROHF) =  -1998.71534264     A.U. after   17 cycles
 E2 =    -0.3456628878D+00 EUMP2 =    -0.19990610055261D+04
 E2(CBS)=      -0.349926 CBS-Int=       0.001980 OIii=       1.953168

 The electronic state is 1-SG.
 Alpha  occ. eigenvalues -- -378.84491 -48.19773 -42.52596 -42.52596 -42.52078
 Alpha  occ. eigenvalues --  -20.48968  -6.42654  -4.51966  -4.51966  -4.51322
 Alpha  occ. eigenvalues --   -1.26968  -1.23486  -1.23486  -1.22693  -1.22693
 Alpha  occ. eigenvalues --   -1.12273  -0.58922  -0.45339  -0.40704  -0.40704
 Alpha virt. eigenvalues --    0.00581   0.01230   0.01230   0.02122   0.03481
 Alpha virt. eigenvalues --    0.03481   0.04193   0.05551   0.07692   0.10064
 Alpha virt. eigenvalues --    0.10064   0.10930   0.14517   0.14517   0.14689

 Mulliken atomic charges:
              1
     1  H   -0.008057
     2  Ga   0.612927
     3  O   -0.604870
 Sum of Mulliken atomic charges =   0.00000

 Dipole moment (field-independent basis, Debye):
    X=              0.0000    Y=              0.0000    Z=              5.7063  Tot=              5.7063
 Quadrupole moment (field-independent basis, Debye-Ang):
   XX=            -19.4854   YY=            -19.4854   ZZ=            -29.0301
   XY=              0.0000   XZ=              0.0000   YZ=              0.0000

 Normal termination of Gaussian 09 at Fri Aug 24 07:44:37 2012.
