 ----------------------------------------------------------------------
 # ROMP2(RW) Gen GFinput Int=NoBasisTransform Int(Grid=Ultrafine) IOp(3
 /32=2,5/6=10,8/11=1,9/33=1) Maxdisk=128GB CBSextrapolate(Nmin=25,MinPo
 p)
 ----------------------------------------------------------------------

 99/5=1,9=1/99;
 ---
 Kr2
 ---
 Charge =  0 Multiplicity = 1

                         Standard orientation:
 ---------------------------------------------------------------------
 Center     Atomic      Atomic             Coordinates (Angstroms)
 Number     Number       Type             X           Y           Z
 ---------------------------------------------------------------------
      1         36           0        0.000000    0.000000    2.000400
      2         36           0        0.000000    0.000000   -2.000400
 ---------------------------------------------------------------------

 SCF Done:  E(ROHF) =  -5504.10926353     A.U. after   13 cycles
 E2 =    -0.4250742131D+00 EUMP2 =    -0.55045343377450D+04
 E2(CBS)=      -0.436780 CBS-Int=       0.005506 OIii=       3.327576

 The electronic state is 1-SGG.
 Alpha  occ. eigenvalues -- -520.16508-520.16508 -69.90271 -69.90271 -63.00942
 Alpha  occ. eigenvalues --  -63.00942 -63.00942 -63.00942 -63.00941 -63.00941
 Alpha  occ. eigenvalues --  -10.84911 -10.84911  -8.33115  -8.33115  -8.33115
 Alpha  occ. eigenvalues --   -8.33115  -8.33113  -8.33113  -3.82490  -3.82490
 Alpha  occ. eigenvalues --   -3.82490  -3.82490  -3.82487  -3.82487  -3.82487
 Alpha  occ. eigenvalues --   -3.82487  -3.82486  -3.82485  -1.15375  -1.15189
 Alpha  occ. eigenvalues --   -0.53363  -0.52540  -0.52540  -0.52267  -0.52267
 Alpha  occ. eigenvalues --   -0.51475
 Alpha virt. eigenvalues --    0.06033   0.07654   0.07654   0.09041   0.09914
 Alpha virt. eigenvalues --    0.09914   0.10337   0.17884   0.20804   0.20804
 Alpha virt. eigenvalues --    0.21098   0.21098   0.24218   0.24218   0.25509

 Mulliken charges and spin densities:
              1          2
     1  Kr   0.000000   0.000000
     2  Kr   0.000000   0.000000
 Sum of Mulliken charges =   0.00000 spin densities =   0.000000

 Dipole moment (field-independent basis, Debye):
    X=              0.0000    Y=              0.0000    Z=              0.0000  Tot=              0.0000
 Quadrupole moment (field-independent basis, Debye-Ang):
   XX=            -35.4407   YY=            -35.4407   ZZ=            -35.5324
   XY=              0.0000   XZ=              0.0000   YZ=              0.0000

 Normal termination of Gaussian DV at Sat Jun 15 06:20:41 2013.
