 ----------------------------------------------------------------------
 # ROMP2(RW) Gen GFinput Int=NoBasisTransform Int(Grid=Ultrafine) IOp(3
 /32=2,5/6=10,8/11=1,9/33=1) Maxdisk=128GB CBSextrapolate(Nmin=20,MinPo
 p)
 ----------------------------------------------------------------------

 99/5=1,9=1/99;
 ---
 Kr2
 ---
 Charge =  0 Multiplicity = 1

                         Standard orientation:
 ---------------------------------------------------------------------
 Center     Atomic      Atomic             Coordinates (Angstroms)
 Number     Number       Type             X           Y           Z
 ---------------------------------------------------------------------
      1         36           0        0.000000    0.000000    2.000400
      2         36           0        0.000000    0.000000   -2.000400
 ---------------------------------------------------------------------

 SCF Done:  E(ROHF) =  -5504.10920622     A.U. after   13 cycles
 E2 =    -0.4198663100D+00 EUMP2 =    -0.55045290725332D+04
 E2(CBS)=      -0.437366 CBS-Int=       0.007836 OIii=       3.518511

 The electronic state is 1-SGG.
 Alpha  occ. eigenvalues -- -520.16504-520.16504 -69.90271 -69.90271 -63.00941
 Alpha  occ. eigenvalues --  -63.00941 -63.00941 -63.00941 -63.00940 -63.00940
 Alpha  occ. eigenvalues --  -10.84912 -10.84912  -8.33117  -8.33117  -8.33117
 Alpha  occ. eigenvalues --   -8.33117  -8.33115  -8.33115  -3.82491  -3.82491
 Alpha  occ. eigenvalues --   -3.82491  -3.82491  -3.82488  -3.82488  -3.82488
 Alpha  occ. eigenvalues --   -3.82488  -3.82487  -3.82487  -1.15375  -1.15189
 Alpha  occ. eigenvalues --   -0.53364  -0.52541  -0.52541  -0.52268  -0.52268
 Alpha  occ. eigenvalues --   -0.51476
 Alpha virt. eigenvalues --    0.06674   0.08270   0.08270   0.10297   0.10676
 Alpha virt. eigenvalues --    0.10676   0.11098   0.19703   0.21575   0.21575
 Alpha virt. eigenvalues --    0.22128   0.22128   0.25150   0.25150   0.26095

 Mulliken charges and spin densities:
              1          2
     1  Kr   0.000000   0.000000
     2  Kr   0.000000   0.000000
 Sum of Mulliken charges =   0.00000 spin densities =   0.000000

 Dipole moment (field-independent basis, Debye):
    X=              0.0000    Y=              0.0000    Z=              0.0000  Tot=              0.0000
 Quadrupole moment (field-independent basis, Debye-Ang):
   XX=            -35.4415   YY=            -35.4415   ZZ=            -35.5328
   XY=              0.0000   XZ=              0.0000   YZ=              0.0000

 Normal termination of Gaussian DV at Fri Jun 14 21:31:49 2013.
