 Gaussian 09, Revision A.02,
 Gaussian 09:  EM64L-G09RevA.02 11-Jun-2009

 ----------------------------------------------------------------------
 # ROMP2 Gen GFinput Int=NoBasisTransform Int(Grid=Ultrafine) IOp(3/32=
 2,5/6=10,8/11=1,9/33=1) Maxdisk=512GB CBSextrapolate(Nmin=25,MinPop) S
 CF=Symm Guess=Read
 ----------------------------------------------------------------------

 --------
 MnF 7Sg+
 --------
 Symbolic Z-matrix:
 Charge =  0 Multiplicity = 7

                         Standard orientation:
 ---------------------------------------------------------------------
 Center     Atomic      Atomic             Coordinates (Angstroms)
 Number     Number       Type             X           Y           Z
 ---------------------------------------------------------------------
      1         25           0        0.000000    0.000000    0.486715
      2          9           0        0.000000    0.000000   -1.351985
 ---------------------------------------------------------------------

 SCF Done:  E(ROHF) =  -1249.41397868     A.U. after   22 cycles
 E2 =    -0.4340820025D+00 EUMP2 =    -0.12498480606823D+04
 E2(CBS)=      -0.437933 CBS-Int=       0.001401 OIii=       2.043312

 The electronic state is 7-SG.
 Alpha  occ. eigenvalues -- -240.54528 -29.18700 -26.17768 -24.89035 -24.89035
 Alpha  occ. eigenvalues --  -24.88886  -4.03050  -2.73884  -2.73884  -2.73740
 Alpha  occ. eigenvalues --   -1.45710  -0.68324  -0.66604  -0.66604  -0.65703
 Alpha  occ. eigenvalues --   -0.65703  -0.53125  -0.53125  -0.52975  -0.29191
 Alpha virt. eigenvalues --    0.00863   0.02065   0.02065   0.04704   0.05252
 Alpha virt. eigenvalues --    0.05492   0.05492   0.05981   0.05981   0.06997
 Alpha virt. eigenvalues --    0.11429   0.11429   0.14977   0.18769   0.18824

 Mulliken atomic charges:
              1
     1  Mn   0.761443
     2  F   -0.761443
 Sum of Mulliken atomic charges =   0.00000

 Dipole moment (field-independent basis, Debye):
    X=              0.0000    Y=              0.0000    Z=              2.9339  Tot=              2.9339
 Quadrupole moment (field-independent basis, Debye-Ang):
   XX=            -19.0555   YY=            -19.0555   ZZ=            -29.3590
   XY=              0.0000   XZ=              0.0000   YZ=              0.0000

 Normal termination of Gaussian 09 at Tue Dec 10 23:14:14 2013.
