 Gaussian 09, Revision A.02,
 Gaussian 09:  EM64L-G09RevA.02 11-Jun-2009

 ----------------------------------------------------------------------
 # ROMP2 Gen GFinput Int=NoBasisTransform Int(Grid=Ultrafine) IOp(3/32=
 2,5/6=10,8/11=1,9/33=1) Maxdisk=128GB CBSextrapolate(Nmin=25,MinPop) S
 CF=Symm Guess=Read
 ----------------------------------------------------------------------

 --------
 MnO+ 5Pi
 --------
 Symbolic Z-matrix:
 Charge =  1 Multiplicity = 5

                         Standard orientation:
 ---------------------------------------------------------------------
 Center     Atomic      Atomic             Coordinates (Angstroms)
 Number     Number       Type             X           Y           Z
 ---------------------------------------------------------------------
      1         25           0        0.000000    0.000000    0.439758
      2          8           0        0.000000    0.000000   -1.374242
 ---------------------------------------------------------------------

 SCF Done:  E(ROHF) =  -1224.27929706     A.U. after   21 cycles
 E2 =    -0.4795346992D+00 EUMP2 =    -0.12247588317577D+04
 E2(CBS)=      -0.483113 CBS-Int=       0.001524 OIii=       1.557726

 Unable to determine electronic state:  an orbital has unidentified symmetry.
 Alpha  occ. eigenvalues -- -240.80634 -29.42639 -25.14443 -25.12728 -25.12352
 Alpha  occ. eigenvalues --  -20.85027  -4.22850  -2.97348  -2.91382  -2.91295
 Alpha  occ. eigenvalues --   -1.45776  -0.89861  -0.89577  -0.88240  -0.88238
 Alpha  occ. eigenvalues --   -0.73107  -0.72593  -0.66844
 Alpha virt. eigenvalues --   -0.25093  -0.23768  -0.13388  -0.11811  -0.08903
 Alpha virt. eigenvalues --   -0.08113  -0.05545  -0.05545  -0.04942  -0.04768
 Alpha virt. eigenvalues --   -0.04214  -0.03838  -0.02095  -0.01842   0.00423

 Mulliken atomic charges:
              1
     1  Mn   1.399936
     2  O   -0.399936
 Sum of Mulliken atomic charges =   1.00000

 Dipole moment (field-independent basis, Debye):
    X=              0.0000    Y=              0.0000    Z=              5.7710  Tot=              5.7710
 Quadrupole moment (field-independent basis, Debye-Ang):
   XX=            -14.2153   YY=            -14.8281   ZZ=            -14.9308
   XY=              0.0000   XZ=              0.0000   YZ=              0.0000

 Normal termination of Gaussian 09 at Tue Dec  3 04:35:17 2013.
