 Gaussian 09, Revision A.02,
 Gaussian 09:  EM64L-G09RevA.02 11-Jun-2009

 ----------------------------------------------------------------------
 # ROMP2 Gen GFinput Int=NoBasisTransform Int(Grid=Ultrafine) IOp(3/32=
 2,5/6=10,8/11=1,9/33=1) Maxdisk=128GB CBSextrapolate(Nmin=25,MinPop) S
 CF=Symm Guess=Read
 ----------------------------------------------------------------------

 ---------
 MnO- 5Sg+
 ---------
 Symbolic Z-matrix:
 Charge = -1 Multiplicity = 5

                         Standard orientation:
 ---------------------------------------------------------------------
 Center     Atomic      Atomic             Coordinates (Angstroms)
 Number     Number       Type             X           Y           Z
 ---------------------------------------------------------------------
      1         25           0        0.000000    0.000000    0.401212
      2          8           0        0.000000    0.000000   -1.253788
 ---------------------------------------------------------------------

 SCF Done:  E(ROHF) =  -1224.63756704     A.U. after   33 cycles
 E2 =    -0.5327251212D+00 EUMP2 =    -0.12251702921586D+04
 E2(CBS)=      -0.537494 CBS-Int=       0.002326 OIii=       1.717884

 The electronic state is 5-SG.
 Alpha  occ. eigenvalues -- -240.41017 -29.05579 -24.76034 -24.76034 -24.75094
 Alpha  occ. eigenvalues --  -20.27466  -3.84457  -2.55660  -2.55660  -2.50453
 Alpha  occ. eigenvalues --   -0.96112  -0.50774  -0.50774  -0.47313  -0.47313
 Alpha  occ. eigenvalues --   -0.27293  -0.19487  -0.19487  -0.08244
 Alpha virt. eigenvalues --    0.07444   0.14178   0.14874   0.14874   0.15464
 Alpha virt. eigenvalues --    0.15741   0.15741   0.17293   0.17293   0.18178
 Alpha virt. eigenvalues --    0.22222   0.27609   0.27609   0.28834   0.30850

 Mulliken atomic charges:
              1
     1  Mn   1.143052
     2  O   -2.143052
 Sum of Mulliken atomic charges =  -1.00000

 Dipole moment (field-independent basis, Debye):
    X=              0.0000    Y=              0.0000    Z=              1.7013  Tot=              1.7013
 Quadrupole moment (field-independent basis, Debye-Ang):
   XX=            -31.1192   YY=            -31.1192   ZZ=            -41.8899
   XY=              0.0000   XZ=              0.0000   YZ=              0.0000

 Normal termination of Gaussian 09 at Sun Dec  1 12:41:59 2013.
