 ----------------------------------------------------------------------
 # ROCCSD(T) aug-cc-pVTZ GFinput Int=NoBasisTransform Int(Grid=Ultrafin
 e) IOp(3/32=2,5/6=10,8/11=1,9/33=1) Maxdisk=128GB SCF=Symm Guess=Read
 ----------------------------------------------------------------------

 99/5=1,9=1/99;
 --------
 MnO 6Sg+
 --------
 Charge =  0 Multiplicity = 6

                         Standard orientation:
 ---------------------------------------------------------------------
 Center     Atomic      Atomic             Coordinates (Angstroms)
 Number     Number       Type             X           Y           Z
 ---------------------------------------------------------------------
      1         25           0        0.000000    0.000000    0.399515
      2          8           0        0.000000    0.000000   -1.248485
 ---------------------------------------------------------------------

 SCF Done:  E(ROHF) =  -1224.64168340     A.U. after   32 cycles
 E2 =    -0.4478753161D+00 EUMP2 =    -0.12250895587186D+04
 CCSD(T)= -0.12251184827D+04

 The electronic state is 6-SG.
 Alpha  occ. eigenvalues -- -240.53423 -29.17597 -24.88095 -24.88095 -24.87370
 Alpha  occ. eigenvalues --  -20.42630  -4.00631  -2.71470  -2.71470  -2.70843
 Alpha  occ. eigenvalues --   -1.11326  -0.64564  -0.64564  -0.63429  -0.63429
 Alpha  occ. eigenvalues --   -0.58810  -0.34051  -0.34051  -0.33560
 Alpha virt. eigenvalues --   -0.04069   0.01674   0.01674   0.02094   0.03885
 Alpha virt. eigenvalues --    0.06856   0.06856   0.08515   0.08570   0.08570
 Alpha virt. eigenvalues --    0.09738   0.09738   0.14192   0.14722   0.23454

 Mulliken charges and spin densities:
              1          2
     1  Mn   0.947258   4.882685
     2  O   -0.947258   0.117315
 Sum of Mulliken charges =   0.00000 spin densities =   5.000000

 Dipole moment (field-independent basis, Debye):
    X=              0.0000    Y=              0.0000    Z=              8.8793  Tot=              8.8793
 Quadrupole moment (field-independent basis, Debye-Ang):
   XX=            -19.1111   YY=            -19.1111   ZZ=            -23.8059
   XY=              0.0000   XZ=              0.0000   YZ=              0.0000

 Normal termination of Gaussian DV at Mon Nov 25 19:34:09 2013.
