 ----------------------------------------------------------------------
 # ROCCSD(T) aug-cc-pVQZ GFinput Int=NoBasisTransform Int(Grid=Ultrafin
 e) IOp(3/32=2,5/6=10,8/11=1,9/33=1) Maxdisk=128GB SCF=Symm Guess=Read
 ----------------------------------------------------------------------

 99/5=1,9=1/99;
 --------
 MnO 6Sg+
 --------
 Charge =  0 Multiplicity = 6

                         Standard orientation:
 ---------------------------------------------------------------------
 Center     Atomic      Atomic             Coordinates (Angstroms)
 Number     Number       Type             X           Y           Z
 ---------------------------------------------------------------------
      1         25           0        0.000000    0.000000    0.399515
      2          8           0        0.000000    0.000000   -1.248485
 ---------------------------------------------------------------------

 SCF Done:  E(ROHF) =  -1224.64695488     A.U. after   35 cycles
 E2 =    -0.4729433905D+00 EUMP2 =    -0.12251198982697D+04
 CCSD(T)= -0.12251465863D+04

 The electronic state is 6-SG.
 Alpha  occ. eigenvalues -- -240.53408 -29.17564 -24.88066 -24.88066 -24.87337
 Alpha  occ. eigenvalues --  -20.42343  -4.00604  -2.71443  -2.71443  -2.70815
 Alpha  occ. eigenvalues --   -1.11242  -0.64557  -0.64557  -0.63423  -0.63423
 Alpha  occ. eigenvalues --   -0.58793  -0.34054  -0.34054  -0.33554
 Alpha virt. eigenvalues --   -0.04066   0.01425   0.01425   0.01785   0.03404
 Alpha virt. eigenvalues --    0.05851   0.05851   0.05975   0.05975   0.06729
 Alpha virt. eigenvalues --    0.07229   0.07229   0.11727   0.12972   0.18210

 Mulliken charges and spin densities:
              1          2
     1  Mn   0.951823   4.902110
     2  O   -0.951823   0.097890
 Sum of Mulliken charges =   0.00000 spin densities =   5.000000

 Dipole moment (field-independent basis, Debye):
    X=              0.0000    Y=              0.0000    Z=              8.8778  Tot=              8.8778
 Quadrupole moment (field-independent basis, Debye-Ang):
   XX=            -19.1068   YY=            -19.1068   ZZ=            -23.7925
   XY=              0.0000   XZ=              0.0000   YZ=              0.0000

 Normal termination of Gaussian DV at Mon Nov 25 20:38:19 2013.
