 ----------------------------------------------------------------------
 # ROCCSD(T) aug-cc-pV5Z GFinput Int=NoBasisTransform Int(Grid=Ultrafin
 e) IOp(3/32=2,5/6=10,8/11=1,9/33=1) Maxdisk=128GB SCF=Symm Guess=Read
 ----------------------------------------------------------------------

 99/5=1,9=1/99;
 --------
 MnO 6Sg+
 --------
 Charge =  0 Multiplicity = 6

                         Standard orientation:
 ---------------------------------------------------------------------
 Center     Atomic      Atomic             Coordinates (Angstroms)
 Number     Number       Type             X           Y           Z
 ---------------------------------------------------------------------
      1         25           0        0.000000    0.000000    0.399515
      2          8           0        0.000000    0.000000   -1.248485
 ---------------------------------------------------------------------

 SCF Done:  E(ROHF) =  -1224.64819862     A.U. after   36 cycles
 E2 =    -0.4834835791D+00 EUMP2 =    -0.12251316822034D+04
 CCSD(T)= -0.12251564001D+04

 The electronic state is 6-SG.
 Alpha  occ. eigenvalues -- -240.53449 -29.17576 -24.88079 -24.88079 -24.87350
 Alpha  occ. eigenvalues --  -20.42263  -4.00599  -2.71437  -2.71437  -2.70809
 Alpha  occ. eigenvalues --   -1.11216  -0.64551  -0.64551  -0.63417  -0.63417
 Alpha  occ. eigenvalues --   -0.58784  -0.34053  -0.34053  -0.33556
 Alpha virt. eigenvalues --   -0.04065   0.01361   0.01361   0.01528   0.03114
 Alpha virt. eigenvalues --    0.05381   0.05381   0.05654   0.05654   0.06085
 Alpha virt. eigenvalues --    0.06602   0.06602   0.10651   0.10979   0.16602

 Mulliken charges and spin densities:
              1          2
     1  Mn   0.824966   4.905161
     2  O   -0.824966   0.094839
 Sum of Mulliken charges =   0.00000 spin densities =   5.000000

 Dipole moment (field-independent basis, Debye):
    X=              0.0000    Y=              0.0000    Z=              8.8779  Tot=              8.8779
 Quadrupole moment (field-independent basis, Debye-Ang):
   XX=            -19.1033   YY=            -19.1033   ZZ=            -23.7931
   XY=              0.0000   XZ=              0.0000   YZ=              0.0000

 Normal termination of Gaussian DV at Wed Nov 27 16:08:33 2013.
