 ----------------------------------------------------------------------
 # ROCCSD(T) aug-cc-pVDZ GFinput Int=NoBasisTransform Int(Grid=Ultrafin
 e) IOp(3/32=2,5/6=10,8/11=1,9/33=1) Maxdisk=128GB SCF=Symm Guess=Read
 ----------------------------------------------------------------------

 99/5=1,9=1/99;
 --------
 MnO 6Sg+
 --------
 Charge =  0 Multiplicity = 6

                         Standard orientation:
 ---------------------------------------------------------------------
 Center     Atomic      Atomic             Coordinates (Angstroms)
 Number     Number       Type             X           Y           Z
 ---------------------------------------------------------------------
      1         25           0        0.000000    0.000000    0.399515
      2          8           0        0.000000    0.000000   -1.248485
 ---------------------------------------------------------------------

 SCF Done:  E(ROHF) =  -1224.62423023     A.U. after   31 cycles
 E2 =    -0.3793577236D+00 EUMP2 =    -0.12250035879514D+04
 CCSD(T)= -0.12250316655D+04

 The electronic state is 6-SG.
 Alpha  occ. eigenvalues -- -240.53954 -29.17928 -24.88446 -24.88446 -24.87723
 Alpha  occ. eigenvalues --  -20.43480  -4.00854  -2.71633  -2.71633  -2.71130
 Alpha  occ. eigenvalues --   -1.11582  -0.64772  -0.64772  -0.63631  -0.63631
 Alpha  occ. eigenvalues --   -0.59266  -0.33923  -0.33923  -0.33659
 Alpha virt. eigenvalues --   -0.04179   0.01682   0.01682   0.02103   0.03973
 Alpha virt. eigenvalues --    0.06869   0.06869   0.08614   0.08614   0.08874
 Alpha virt. eigenvalues --    0.10178   0.10178   0.14658   0.16124   0.23616

 Mulliken charges and spin densities:
              1          2
     1  Mn   0.938785   4.901840
     2  O   -0.938785   0.098160
 Sum of Mulliken charges =   0.00000 spin densities =   5.000000

 Dipole moment (field-independent basis, Debye):
    X=              0.0000    Y=              0.0000    Z=              8.9236  Tot=              8.9236
 Quadrupole moment (field-independent basis, Debye-Ang):
   XX=            -19.1535   YY=            -19.1535   ZZ=            -23.7592
   XY=              0.0000   XZ=              0.0000   YZ=              0.0000

 2\PMP2-0=-1225.003588\MP4SDQ=-1225.0167412\CCSD=-1225.0117483\CCSD(T)=
 Normal termination of Gaussian DV at Mon Nov 25 19:21:15 2013.
