 Gaussian 09, Revision A.02,
 Gaussian 09:  EM64L-G09RevA.02 11-Jun-2009

 ----------------------------------------------------------------------
 # ROMP2 Gen GFinput Int=NoBasisTransform Int(Grid=Ultrafine) IOp(3/32=
 2,5/6=10,8/11=1,9/33=1) Maxdisk=128GB CBSextrapolate(Nmin=25,MinPop) S
 CF=Symm Guess=Read
 ----------------------------------------------------------------------

 --------
 MnO 6Sg+
 --------
 Symbolic Z-matrix:
 Charge =  0 Multiplicity = 6

                         Standard orientation:
 ---------------------------------------------------------------------
 Center     Atomic      Atomic             Coordinates (Angstroms)
 Number     Number       Type             X           Y           Z
 ---------------------------------------------------------------------
      1         25           0        0.000000    0.000000    0.399515
      2          8           0        0.000000    0.000000   -1.248485
 ---------------------------------------------------------------------

 SCF Done:  E(ROHF) =  -1224.64835801     A.U. after   37 cycles
 E2 =    -0.4904029217D+00 EUMP2 =    -0.12251387609325D+04
 E2(CBS)=      -0.493968 CBS-Int=       0.001562 OIii=       1.584185

 The electronic state is 6-SG.
 Alpha  occ. eigenvalues -- -240.53502 -29.17584 -24.88090 -24.88090 -24.87363
 Alpha  occ. eigenvalues --  -20.42257  -4.00598  -2.71436  -2.71436  -2.70808
 Alpha  occ. eigenvalues --   -1.11213  -0.64550  -0.64550  -0.63415  -0.63415
 Alpha  occ. eigenvalues --   -0.58783  -0.34052  -0.34052  -0.33556
 Alpha virt. eigenvalues --   -0.04038   0.00982   0.02630   0.02630   0.03831
 Alpha virt. eigenvalues --    0.05185   0.05556   0.05556   0.06173   0.06173
 Alpha virt. eigenvalues --    0.08337   0.12444   0.12444   0.15378   0.16920

 Mulliken atomic charges:
              1
     1  Mn   1.156182
     2  O   -1.156182
 Sum of Mulliken atomic charges =   0.00000

 Dipole moment (field-independent basis, Debye):
    X=              0.0000    Y=              0.0000    Z=              8.8783  Tot=              8.8783
 Quadrupole moment (field-independent basis, Debye-Ang):
   XX=            -19.1017   YY=            -19.1017   ZZ=            -23.7936
   XY=              0.0000   XZ=              0.0000   YZ=              0.0000

 Normal termination of Gaussian 09 at Mon Dec  2 07:19:14 2013.
