 Gaussian 09, Revision A.02,
 Gaussian 09:  EM64L-G09RevA.02 11-Jun-2009

 ----------------------------------------------------------------------
 # ROMP2 Gen GFinput Int=NoBasisTransform Guess=Read scf=(symm,tight) I
 OP(3/32=2,5/6=8,9/33=1) SCFcyc=500 CBSextrapolate(Nmin=25,MinPop)
 ----------------------------------------------------------------------

 --------
 NiO+ 2Pi
 --------
 Symbolic Z-matrix:
 Charge =  1 Multiplicity = 2

                         Standard orientation:
 ---------------------------------------------------------------------
 Center     Atomic      Atomic             Coordinates (Angstroms)
 Number     Number       Type             X           Y           Z
 ---------------------------------------------------------------------
      1         28           0        0.000000    0.000000    0.358929
      2          8           0        0.000000    0.000000   -1.256251
 ---------------------------------------------------------------------

 SCF Done:  E(ROHF) =  -1581.30683685     A.U. after   13 cycles
 E2 =    -0.6459399734D+00 EUMP2 =    -0.15819527768192D+04
 E2(CBS)=      -0.651674 CBS-Int=       0.002199 OIii=       3.497244

 Unable to determine electronic state:  an orbital has unidentified symmetry.
 Alpha  occ. eigenvalues -- -305.93574 -38.23289 -33.27113 -33.26796 -33.23673
 Alpha  occ. eigenvalues --  -20.84822  -5.20206  -3.60897  -3.60240  -3.58285
 Alpha  occ. eigenvalues --   -1.56617  -1.06165  -1.00716  -0.97696  -0.95315
 Alpha  occ. eigenvalues --   -0.83429  -0.76817  -0.76608
 Alpha virt. eigenvalues --   -0.25772  -0.19764  -0.13319  -0.11795  -0.08954
 Alpha virt. eigenvalues --   -0.08405  -0.05236  -0.05236  -0.04746  -0.04584
 Alpha virt. eigenvalues --   -0.03640  -0.02604  -0.00832  -0.00817   0.01569

 Mulliken atomic charges:
              1
     1  Ni   1.539424
     2  O   -0.539424
 Sum of Mulliken atomic charges =   1.00000

 Dipole moment (field-independent basis, Debye):
    X=              0.0000    Y=              0.0000    Z=              5.4740  Tot=              5.4740
 Quadrupole moment (field-independent basis, Debye-Ang):
   XX=            -14.4044   YY=            -14.0199   ZZ=            -14.3489
   XY=              0.0000   XZ=              0.0000   YZ=              0.0000

 Normal termination of Gaussian 09 at Wed Dec 11 16:51:28 2013.
