 Gaussian 09, Revision A.02,
 Gaussian 09:  EM64L-G09RevA.02 11-Jun-2009

 ----------------------------------------------------------------------
 #p ROMP2 GFinput Int=NoBasisTransform Guess=Read Gen scf=(symm,tight)
 IOP(3/32=2,5/6=8,9/33=1) SCFcyc=500 CBSextrapolate(Nmin=25,MinPop) Int
 (Grid=Ultrafine)
 ----------------------------------------------------------------------

 --------
 NiO- 2Pi
 --------
 Symbolic Z-matrix:
 Charge = -1 Multiplicity = 2

                         Standard orientation:
 ---------------------------------------------------------------------
 Center     Atomic      Atomic             Coordinates (Angstroms)
 Number     Number       Type             X           Y           Z
 ---------------------------------------------------------------------
      1         28           0        0.000000    0.000000    0.361391
      2          8           0        0.000000    0.000000   -1.264869
 ---------------------------------------------------------------------

 SCF Done:  E(ROHF) =  -1581.61280778     A.U. after   18 cycles
 E2 =    -0.8806618836D+00 EUMP2 =    -0.15824934696679D+04
 E2(CBS)=      -0.887269 CBS-Int=       0.002808 OIii=       3.379313

 Unable to determine electronic state:  an orbital has unidentified symmetry.
 Alpha  occ. eigenvalues -- -305.27106 -37.58160 -32.62313 -32.61439 -32.58242
 Alpha  occ. eigenvalues --  -20.24493  -4.57851  -3.01940  -3.00466  -2.93028
 Alpha  occ. eigenvalues --   -0.91100  -0.43119  -0.36596  -0.33452  -0.31837
 Alpha  occ. eigenvalues --   -0.24732  -0.15186  -0.14264  -0.07816
 Alpha virt. eigenvalues --    0.09689   0.15543   0.16233   0.16304   0.18400
 Alpha virt. eigenvalues --    0.18697   0.18722   0.20711   0.20871   0.21157
 Alpha virt. eigenvalues --    0.27053   0.30088   0.30738   0.30887   0.36262

 Mulliken atomic charges:
              1
     1  Ni   0.397994
     2  O   -1.397994
 Sum of Mulliken atomic charges =  -1.00000

 Dipole moment (field-independent basis, Debye):
    X=              0.0000    Y=              0.0000    Z=              5.2121  Tot=              5.2121
 Quadrupole moment (field-independent basis, Debye-Ang):
   XX=            -25.1386   YY=            -26.2952   ZZ=            -31.3256
   XY=              0.0000   XZ=              0.0000   YZ=              0.0000

 Normal termination of Gaussian 09 at Mon Dec 16 22:36:18 2013.
