 Gaussian 09, Revision A.02,
 Gaussian 09:  EM64L-G09RevA.02 11-Jun-2009

 ----------------------------------------------------------------------
 #p ROMP2 GFinput Int=NoBasisTransform Guess=Read Gen scf=(symm,tight)
 IOP(3/32=2,5/6=8,9/33=1) SCFcyc=500 Int(Grid=Ultrafine) CBSextrapolate
 (Nmin=25,MinPop)
 ----------------------------------------------------------------------

 -------
 NiO 3Sg
 -------
 Symbolic Z-matrix:
 Charge =  0 Multiplicity = 3

                         Standard orientation:
 ---------------------------------------------------------------------
 Center     Atomic      Atomic             Coordinates (Angstroms)
 Number     Number       Type             X           Y           Z
 ---------------------------------------------------------------------
      1         28           0        0.000000    0.000000    0.361582
      2          8           0        0.000000    0.000000   -1.265538
 ---------------------------------------------------------------------

 SCF Done:  E(ROHF) =  -1581.63596269     A.U. after   19 cycles
 E2 =    -0.7413209472D+00 EUMP2 =    -0.15823772836341D+04
 E2(CBS)=      -0.747309 CBS-Int=       0.002401 OIii=       3.209798

 The electronic state is 3-SG.
 Alpha  occ. eigenvalues -- -305.63843 -37.97363 -33.02056 -32.98568 -32.98568
 Alpha  occ. eigenvalues --  -20.46044  -4.99913  -3.46356  -3.38354  -3.38354
 Alpha  occ. eigenvalues --   -1.14661  -0.80684  -0.80684  -0.74144  -0.71754
 Alpha  occ. eigenvalues --   -0.71754  -0.37651  -0.37651  -0.36945
 Alpha virt. eigenvalues --   -0.05245   0.01604   0.03389   0.03389   0.04661
 Alpha virt. eigenvalues --    0.07115   0.07115   0.07613   0.07613   0.09199
 Alpha virt. eigenvalues --    0.09831   0.14975   0.14975   0.16623   0.20919

 Mulliken atomic charges:
              1
     1  Ni   1.100125
     2  O   -1.100125
 Sum of Mulliken atomic charges =   0.00000

 Dipole moment (field-independent basis, Debye):
    X=              0.0000    Y=              0.0000    Z=              8.2725  Tot=              8.2725
 Quadrupole moment (field-independent basis, Debye-Ang):
   XX=            -18.6686   YY=            -18.6686   ZZ=            -21.6771
   XY=              0.0000   XZ=              0.0000   YZ=              0.0000

 Normal termination of Gaussian 09 at Wed Dec 18 02:10:30 2013.
