 ----------------------------------------------------------------------
 # ROCCSD(T,RW) Gen GFinput Int=NoBasisTransform Int(Grid=Ultrafine) IO
 p(3/32=2,5/6=10,8/11=1,9/33=1) Maxdisk=128GB Guess=Read
 ----------------------------------------------------------------------

 99/5=1,9=1/99;
 ------
 Sc- 3F
 ------
 Charge = -1 Multiplicity = 3

                         Standard orientation:
 ---------------------------------------------------------------------
 Center     Atomic      Atomic             Coordinates (Angstroms)
 Number     Number       Type             X           Y           Z
 ---------------------------------------------------------------------
      1         21           0        0.000000    0.000000    0.000000
 ---------------------------------------------------------------------

 SCF Done:  E(ROHF) =  -759.722826230     A.U. after   18 cycles
 E2 =    -0.4050911751D-01 EUMP2 =    -0.75976333534731D+03
 CCSD(T)= -0.75977859446D+03

 Unable to determine electronic state:  an orbital has unidentified symmetry.
 Alpha  occ. eigenvalues -- -165.75962 -18.94678 -15.53614 -15.53477 -15.53435
 Alpha  occ. eigenvalues --   -2.45402  -1.48053  -1.48047  -1.44712  -0.20489
 Alpha  occ. eigenvalues --   -0.09158   0.00952
 Alpha virt. eigenvalues --    0.09101   0.12072   0.12172   0.16726   0.16841
 Alpha virt. eigenvalues --    0.17372   0.17375   0.17402   0.18895   0.20064
 Alpha virt. eigenvalues --    0.20237   0.21139   0.26111   0.26622   0.26762

 Mulliken charges and spin densities:
              1          2
     1  Sc  -1.000000   2.000000
 Sum of Mulliken charges =  -1.00000 spin densities =   2.000000

 Dipole moment (field-independent basis, Debye):
    X=              0.0000    Y=              0.0000    Z=              0.0000  Tot=              0.0000
 Quadrupole moment (field-independent basis, Debye-Ang):
   XX=            -41.7302   YY=            -41.4536   ZZ=            -71.1867
   XY=              0.0000   XZ=              0.0000   YZ=              0.0000

 =-759.7753446\CCSD(T)=-759.7785945\RMSD=4.555e-12\PG=OH [O(Sc1)]\\@
 Normal termination of Gaussian DV at Fri Mar  8 06:50:37 2013.
