 ----------------------------------------------------------------------
 # ROMP2(RW) Gen GFinput Int=NoBasisTransform Int(Grid=Ultrafine) IOp(3
 /32=2,5/6=10,8/11=1,9/33=1) Maxdisk=128GB CBSextrapolate(Nmin=25,MinPo
 p)
 ----------------------------------------------------------------------

 99/5=1,9=1/99;
 ---
 Se2
 ---
 Charge =  0 Multiplicity = 3

                         Standard orientation:
 ---------------------------------------------------------------------
 Center     Atomic      Atomic             Coordinates (Angstroms)
 Number     Number       Type             X           Y           Z
 ---------------------------------------------------------------------
      1         34           0        0.000000    0.000000    1.083000
      2         34           0        0.000000    0.000000   -1.083000
 ---------------------------------------------------------------------

 SCF Done:  E(ROHF) =  -4799.79019412     A.U. after   17 cycles
 E2 =    -0.3422577823D+00 EUMP2 =    -0.48001324519063D+04
 E2(CBS)=      -0.350190 CBS-Int=       0.003918 OIii=       1.706608

 The electronic state is 3-SGG.
 Alpha  occ. eigenvalues -- -460.87988-460.87988 -60.68041 -60.68041 -54.28237
 Alpha  occ. eigenvalues --  -54.28237 -54.28237 -54.28237 -54.28024 -54.28024
 Alpha  occ. eigenvalues --   -8.94677  -8.94665  -6.67905  -6.67905  -6.67899
 Alpha  occ. eigenvalues --   -6.67899  -6.67604  -6.67549  -2.66913  -2.66587
 Alpha  occ. eigenvalues --   -2.66587  -2.66365  -2.66365  -2.66351  -2.66351
 Alpha  occ. eigenvalues --   -2.66343  -2.66343  -2.66251  -1.02314  -0.82782
 Alpha  occ. eigenvalues --   -0.48462  -0.47724  -0.47724  -0.34825  -0.34825
 Alpha virt. eigenvalues --    0.03714   0.05993   0.07282   0.07282   0.08751
 Alpha virt. eigenvalues --    0.09101   0.09101   0.10085   0.14955   0.14955
 Alpha virt. eigenvalues --    0.17519   0.19715   0.19715   0.21336   0.21336

 Mulliken charges and spin densities:
              1          2
     1  Se   0.000000   1.000000
     2  Se   0.000000   1.000000
 Sum of Mulliken charges =   0.00000 spin densities =   2.000000

 Dipole moment (field-independent basis, Debye):
    X=              0.0000    Y=              0.0000    Z=              0.0000  Tot=              0.0000
 Quadrupole moment (field-independent basis, Debye-Ang):
   XX=            -37.2836   YY=            -37.2836   ZZ=            -34.0503
   XY=              0.0000   XZ=              0.0000   YZ=              0.0000

 Normal termination of Gaussian DV at Thu May  2 02:13:51 2013.
