 Gaussian 09, Revision A.02,
 Gaussian 09:  EM64L-G09RevA.02 11-Jun-2009

 ----------------------------------------------------------------------
 # ROMP2(RW) Gen GFinput Int=NoBasisTransform Int(Grid=Ultrafine) IOp(3
 /32=2,5/6=10,8/11=1,9/33=1) Maxdisk=128GB CBSextrapolate(Nmin=25,MinPo
 p)
 ----------------------------------------------------------------------

 ---
 Se2
 ---
 Symbolic Z-matrix:
 Charge =  0 Multiplicity = 3

                         Standard orientation:
 ---------------------------------------------------------------------
 Center     Atomic      Atomic             Coordinates (Angstroms)
 Number     Number       Type             X           Y           Z
 ---------------------------------------------------------------------
      1         34           0        0.000000    0.000000    1.083000
      2         34           0        0.000000    0.000000   -1.083000
 ---------------------------------------------------------------------

 SCF Done:  E(ROHF) =  -4799.79018787     A.U. after   18 cycles
 E2 =    -0.3418333729D+00 EUMP2 =    -0.48001320212409D+04
 E2(CBS)=      -0.350148 CBS-Int=       0.004057 OIii=       1.750778

 The electronic state is 3-SGG.
 Alpha  occ. eigenvalues -- -460.87989-460.87989 -60.68041 -60.68041 -54.28237
 Alpha  occ. eigenvalues --  -54.28237 -54.28237 -54.28237 -54.28024 -54.28024
 Alpha  occ. eigenvalues --   -8.94677  -8.94665  -6.67905  -6.67905  -6.67899
 Alpha  occ. eigenvalues --   -6.67899  -6.67604  -6.67549  -2.66913  -2.66587
 Alpha  occ. eigenvalues --   -2.66587  -2.66365  -2.66365  -2.66351  -2.66351
 Alpha  occ. eigenvalues --   -2.66342  -2.66342  -2.66251  -1.02314  -0.82782
 Alpha  occ. eigenvalues --   -0.48462  -0.47724  -0.47724  -0.34826  -0.34826
 Alpha virt. eigenvalues --    0.03977   0.06871   0.07329   0.07329   0.09406
 Alpha virt. eigenvalues --    0.09664   0.09664   0.11371   0.18036   0.22585
 Alpha virt. eigenvalues --    0.22585   0.26421   0.26421   0.28228   0.31816

 Mulliken atomic charges:
              1
     1  Se   0.000000
     2  Se   0.000000
 Sum of Mulliken atomic charges =   0.00000

 Dipole moment (field-independent basis, Debye):
    X=              0.0000    Y=              0.0000    Z=              0.0000  Tot=              0.0000
 Quadrupole moment (field-independent basis, Debye-Ang):
   XX=            -37.2825   YY=            -37.2825   ZZ=            -34.0575
   XY=              0.0000   XZ=              0.0000   YZ=              0.0000

 Normal termination of Gaussian 09 at Thu Aug 16 23:05:37 2012.
