 ----------------------------------------------------------------------
 # ROMP2(RW) Gen GFinput Int=NoBasisTransform Int(Grid=Ultrafine) IOp(3
 /32=2,5/6=10,8/11=1,9/33=1) Maxdisk=128GB CBSextrapolate(Nmin=20,MinPo
 p)
 ----------------------------------------------------------------------

 99/5=1,9=1/99;
 ---
 Se2
 ---
 Charge =  0 Multiplicity = 3

                         Standard orientation:
 ---------------------------------------------------------------------
 Center     Atomic      Atomic             Coordinates (Angstroms)
 Number     Number       Type             X           Y           Z
 ---------------------------------------------------------------------
      1         34           0        0.000000    0.000000    1.083000
      2         34           0        0.000000    0.000000   -1.083000
 ---------------------------------------------------------------------

 SCF Done:  E(ROHF) =  -4799.79012781     A.U. after   18 cycles
 E2 =    -0.3391844189D+00 EUMP2 =    -0.48001293122336D+04
 E2(CBS)=      -0.351069 CBS-Int=       0.005679 OIii=       1.823985

 The electronic state is 3-SGG.
 Alpha  occ. eigenvalues -- -460.87980-460.87980 -60.68039 -60.68039 -54.28233
 Alpha  occ. eigenvalues --  -54.28233 -54.28233 -54.28233 -54.28022 -54.28022
 Alpha  occ. eigenvalues --   -8.94679  -8.94667  -6.67906  -6.67906  -6.67899
 Alpha  occ. eigenvalues --   -6.67899  -6.67609  -6.67553  -2.66916  -2.66590
 Alpha  occ. eigenvalues --   -2.66590  -2.66364  -2.66364  -2.66354  -2.66354
 Alpha  occ. eigenvalues --   -2.66342  -2.66342  -2.66254  -1.02317  -0.82781
 Alpha  occ. eigenvalues --   -0.48462  -0.47725  -0.47725  -0.34825  -0.34825
 Alpha virt. eigenvalues --    0.03619   0.06058   0.06950   0.06950   0.08554
 Alpha virt. eigenvalues --    0.08922   0.08922   0.09915   0.15421   0.15421
 Alpha virt. eigenvalues --    0.17709   0.20319   0.20319   0.22283   0.22283

 Mulliken charges and spin densities:
              1          2
     1  Se   0.000000   1.000000
     2  Se   0.000000   1.000000
 Sum of Mulliken charges =   0.00000 spin densities =   2.000000

 Dipole moment (field-independent basis, Debye):
    X=              0.0000    Y=              0.0000    Z=              0.0000  Tot=              0.0000
 Quadrupole moment (field-independent basis, Debye-Ang):
   XX=            -37.2847   YY=            -37.2847   ZZ=            -34.0502
   XY=              0.0000   XZ=              0.0000   YZ=              0.0000

 Normal termination of Gaussian DV at Wed May  1 12:01:47 2013.
