 Gaussian 09, Revision A.02,
 Gaussian 09:  EM64L-G09RevA.02 11-Jun-2009

 ----------------------------------------------------------------------
 # ROMP2(RW) Gen GFinput Int=NoBasisTransform Int(Grid=Ultrafine) IOp(3
 /32=2,5/6=10,8/11=1,9/33=1) Maxdisk=128GB CBSextrapolate(Nmin=20,MinPo
 p)
 ----------------------------------------------------------------------

 ---
 Se2
 ---
 Symbolic Z-matrix:
 Charge =  0 Multiplicity = 3

                         Standard orientation:
 ---------------------------------------------------------------------
 Center     Atomic      Atomic             Coordinates (Angstroms)
 Number     Number       Type             X           Y           Z
 ---------------------------------------------------------------------
      1         34           0        0.000000    0.000000    1.083000
      2         34           0        0.000000    0.000000   -1.083000
 ---------------------------------------------------------------------

 SCF Done:  E(ROHF) =  -4799.79011249     A.U. after   18 cycles
 E2 =    -0.3385686570D+00 EUMP2 =    -0.48001286811464D+04
 E2(CBS)=      -0.350962 CBS-Int=       0.005826 OIii=       1.873700

 The electronic state is 3-SGG.
 Alpha  occ. eigenvalues -- -460.87980-460.87980 -60.68039 -60.68039 -54.28233
 Alpha  occ. eigenvalues --  -54.28233 -54.28233 -54.28233 -54.28022 -54.28022
 Alpha  occ. eigenvalues --   -8.94679  -8.94667  -6.67905  -6.67905  -6.67899
 Alpha  occ. eigenvalues --   -6.67899  -6.67609  -6.67553  -2.66916  -2.66590
 Alpha  occ. eigenvalues --   -2.66590  -2.66364  -2.66364  -2.66353  -2.66353
 Alpha  occ. eigenvalues --   -2.66342  -2.66342  -2.66254  -1.02317  -0.82781
 Alpha  occ. eigenvalues --   -0.48462  -0.47725  -0.47725  -0.34826  -0.34826
 Alpha virt. eigenvalues --    0.03869   0.06776   0.06984   0.06984   0.09217
 Alpha virt. eigenvalues --    0.09223   0.09223   0.11293   0.18151   0.24297
 Alpha virt. eigenvalues --    0.24297   0.27416   0.27416   0.27721   0.31511

 Mulliken atomic charges:
              1
     1  Se   0.000000
     2  Se   0.000000
 Sum of Mulliken atomic charges =   0.00000

 Dipole moment (field-independent basis, Debye):
    X=              0.0000    Y=              0.0000    Z=              0.0000  Tot=              0.0000
 Quadrupole moment (field-independent basis, Debye-Ang):
   XX=            -37.2835   YY=            -37.2835   ZZ=            -34.0610
   XY=              0.0000   XZ=              0.0000   YZ=              0.0000

 Normal termination of Gaussian 09 at Fri Aug 17 09:48:39 2012.
