 ----------------------------------------------------------------------
 # ROMP2(RW) Gen GFinput Int=NoBasisTransform Int(Grid=Ultrafine) IOp(3
 /32=2,5/6=10,8/11=1,9/33=1) Maxdisk=128GB CBSextrapolate(Nmin=25,MinPo
 p)
 ----------------------------------------------------------------------

 99/5=1,9=1/99;
 -------
 SeO 3Sg
 -------
 Charge =  0 Multiplicity = 3

                         Standard orientation:
 ---------------------------------------------------------------------
 Center     Atomic      Atomic             Coordinates (Angstroms)
 Number     Number       Type             X           Y           Z
 ---------------------------------------------------------------------
      1         34           0        0.000000    0.000000    0.313981
      2          8           0        0.000000    0.000000   -1.334419
 ---------------------------------------------------------------------

 SCF Done:  E(ROHF) =  -2474.72629157     A.U. after   25 cycles
 E2 =    -0.4500631329D+00 EUMP2 =    -0.24751763547012D+04
 E2(CBS)=      -0.455881 CBS-Int=       0.002492 OIii=       2.123195

 The electronic state is 3-SG.
 Alpha  occ. eigenvalues -- -460.93197 -60.73027 -54.33343 -54.33343 -54.32942
 Alpha  occ. eigenvalues --  -20.60047  -8.99842  -6.73293  -6.73293  -6.72433
 Alpha  occ. eigenvalues --   -2.71748  -2.71748  -2.71685  -2.71584  -2.71584
 Alpha  occ. eigenvalues --   -1.35011  -0.91967  -0.59325  -0.59325  -0.57088
 Alpha  occ. eigenvalues --   -0.40178  -0.40178
 Alpha virt. eigenvalues --    0.04255   0.05811   0.06691   0.06691   0.11422
 Alpha virt. eigenvalues --    0.12815   0.12815   0.13092   0.15588   0.15588
 Alpha virt. eigenvalues --    0.21900   0.21900   0.22432   0.28032   0.29485

 Mulliken charges and spin densities:
              1          2
     1  Se   0.546068   1.570578
     2  O   -0.546068   0.429422
 Sum of Mulliken charges =   0.00000 spin densities =   2.000000

 Dipole moment (field-independent basis, Debye):
    X=              0.0000    Y=              0.0000    Z=              3.1048  Tot=              3.1048
 Quadrupole moment (field-independent basis, Debye-Ang):
   XX=            -22.6526   YY=            -22.6526   ZZ=            -26.0784
   XY=              0.0000   XZ=              0.0000   YZ=              0.0000

 Normal termination of Gaussian DV at Sat Jun  1 09:40:52 2013.
