 Gaussian 09, Revision A.02,
 Gaussian 09:  EM64L-G09RevA.02 11-Jun-2009

 ----------------------------------------------------------------------
 # ROMP2 Gen GFinput Int=NoBasisTransform Int(Grid=Ultrafine) IOp(3/32=
 2,5/6=10,8/11=1,9/33=1) Maxdisk=128GB CBSextrapolate(Nmin=25,MinPop) G
 uess=Read SCF=Symm
 ----------------------------------------------------------------------

 -------
 TiF 4()
 -------
 Symbolic Z-matrix:
 Charge =  0 Multiplicity = 4

                         Standard orientation:
 ---------------------------------------------------------------------
 Center     Atomic      Atomic             Coordinates (Angstroms)
 Number     Number       Type             X           Y           Z
 ---------------------------------------------------------------------
      1         22           0        0.000000    0.000000    0.531610
      2          9           0        0.000000    0.000000   -1.299490
 ---------------------------------------------------------------------

 SCF Done:  E(ROHF) =  -947.967061560     A.U. after   21 cycles
 E2 =    -0.3535138639D+00 EUMP2 =    -0.94832057542426D+03
 E2(CBS)=      -0.356999 CBS-Int=       0.001341 OIii=       2.019074

 The electronic state is 4-SG.
 Alpha  occ. eigenvalues -- -183.25854 -26.20528 -21.42518 -17.79540 -17.79345
 Alpha  occ. eigenvalues --  -17.79345  -2.91924  -1.88189  -1.88189  -1.82343
 Alpha  occ. eigenvalues --   -1.46836  -0.60141  -0.57508  -0.57508  -0.38027
 Alpha  occ. eigenvalues --   -0.38027  -0.24740
 Alpha virt. eigenvalues --    0.01070   0.01070   0.02520   0.02826   0.03975
 Alpha virt. eigenvalues --    0.03975   0.04317   0.04317   0.04518   0.07483
 Alpha virt. eigenvalues --    0.07483   0.07604   0.13808   0.13808   0.13857

 Mulliken atomic charges:
              1
     1  Ti   0.827306
     2  F   -0.827306
 Sum of Mulliken atomic charges =   0.00000

 Dipole moment (field-independent basis, Debye):
    X=              0.0000    Y=              0.0000    Z=              2.6350  Tot=              2.6350
 Quadrupole moment (field-independent basis, Debye-Ang):
   XX=            -21.9574   YY=            -21.9574   ZZ=            -28.8774
   XY=              0.0000   XZ=              0.0000   YZ=              0.0000

 Normal termination of Gaussian 09 at Thu Oct 24 06:03:09 2013.
