 Gaussian 09, Revision A.02,
 Gaussian 09:  EM64L-G09RevA.02 11-Jun-2009

 ----------------------------------------------------------------------
 # ROMP2 Gen GFinput Int=NoBasisTransform Int(Grid=Ultrafine) IOp(3/32=
 2,5/6=10,8/11=1,9/33=1) Maxdisk=128GB CBSextrapolate(Nmin=25,MinPop) G
 uess=Read
 ----------------------------------------------------------------------

 -------
 TiN 2Sg
 -------
 Symbolic Z-matrix:
 Charge =  0 Multiplicity = 2

                         Standard orientation:
 ---------------------------------------------------------------------
 Center     Atomic      Atomic             Coordinates (Angstroms)
 Number     Number       Type             X           Y           Z
 ---------------------------------------------------------------------
      1         22           0        0.000000    0.000000    0.381428
      2          7           0        0.000000    0.000000   -1.198772
 ---------------------------------------------------------------------

 SCF Done:  E(ROHF) =  -902.769261878     A.U. after   18 cycles
 E2 =    -0.4263959715D+00 EUMP2 =    -0.90319565784974D+03
 E2(CBS)=      -0.429113 CBS-Int=       0.001478 OIii=       1.223998

 The electronic state is 2-SG.
 Alpha  occ. eigenvalues -- -183.35657 -21.51814 -17.88873 -17.88873 -17.87840
 Alpha  occ. eigenvalues --  -15.52887  -2.94639  -1.89360  -1.86411  -1.86411
 Alpha  occ. eigenvalues --   -0.90866  -0.39828  -0.39127  -0.39127  -0.25674
 Alpha virt. eigenvalues --    0.00330   0.00330   0.02051   0.02692   0.03597
 Alpha virt. eigenvalues --    0.03597   0.03797   0.03797   0.04370   0.06347
 Alpha virt. eigenvalues --    0.06347   0.06355   0.07791   0.07791   0.09411

 Mulliken atomic charges:
              1
     1  Ti   0.519454
     2  N   -0.519454
 Sum of Mulliken atomic charges =   0.00000

 Dipole moment (field-independent basis, Debye):
    X=              0.0000    Y=              0.0000    Z=              3.9313  Tot=              3.9313
 Quadrupole moment (field-independent basis, Debye-Ang):
   XX=            -23.0151   YY=            -23.0151   ZZ=            -30.6934
   XY=              0.0000   XZ=              0.0000   YZ=              0.0000

 Normal termination of Gaussian 09 at Sat Oct 19 03:27:14 2013.
