 Gaussian 09, Revision A.02,
 Gaussian 09:  EM64L-G09RevA.02 11-Jun-2009

 ----------------------------------------------------------------------
 # ROMP2 Gen GFinput Int=NoBasisTransform Int(Grid=Ultrafine) IOp(3/32=
 2,5/6=10,8/11=1,9/33=1) Maxdisk=128GB CBSextrapolate(Nmin=25,MinPop) S
 CF=Symm Guess=Read
 ----------------------------------------------------------------------

 --------
 TiO- 2/\
 --------
 Symbolic Z-matrix:
 Charge = -1 Multiplicity = 2

                         Standard orientation:
 ---------------------------------------------------------------------
 Center     Atomic      Atomic             Coordinates (Angstroms)
 Number     Number       Type             X           Y           Z
 ---------------------------------------------------------------------
      1         22           0        0.000000    0.000000    0.438400
      2          8           0        0.000000    0.000000   -1.205600
 ---------------------------------------------------------------------

 SCF Done:  E(ROHF) =  -923.336689953     A.U. after   20 cycles
 E2 =    -0.4148025436D+00 EUMP2 =    -0.92375149249614D+03
 E2(CBS)=      -0.418696 CBS-Int=       0.002127 OIii=       1.631516

 Unable to determine electronic state:  an orbital has unidentified symmetry.
 Alpha  occ. eigenvalues -- -183.13584 -21.31146 -20.30943 -17.67931 -17.67931
 Alpha  occ. eigenvalues --  -17.67727  -2.76774  -1.70760  -1.70760  -1.69027
 Alpha  occ. eigenvalues --   -0.97162  -0.28674  -0.27439  -0.26396  -0.26396
 Alpha  occ. eigenvalues --   -0.04466
 Alpha virt. eigenvalues --    0.11937   0.12383   0.12394   0.12437   0.12512
 Alpha virt. eigenvalues --    0.12512   0.12933   0.12933   0.13709   0.21673
 Alpha virt. eigenvalues --    0.21673   0.21852   0.24871   0.25262   0.26845

 Mulliken atomic charges:
              1
     1  Ti  -0.519410
     2  O   -0.480590
 Sum of Mulliken atomic charges =  -1.00000

 Dipole moment (field-independent basis, Debye):
    X=              0.0000    Y=              0.0000    Z=             -1.6173  Tot=              1.6173
 Quadrupole moment (field-independent basis, Debye-Ang):
   XX=            -37.8233   YY=            -37.8233   ZZ=            -52.4245
   XY=              0.0000   XZ=              0.0000   YZ=              0.0000

 Normal termination of Gaussian 09 at Wed Oct 23 18:25:16 2013.
