 Gaussian 09, Revision A.02,
 Gaussian 09:  EM64L-G09RevA.02 11-Jun-2009

 ----------------------------------------------------------------------
 # ROMP2 Gen GFinput Int=NoBasisTransform Int(Grid=Ultrafine) IOp(3/32=
 2,5/6=10,8/11=1,9/33=1) Maxdisk=128GB CBSextrapolate(Nmin=25,MinPop) G
 uess=Read
 ----------------------------------------------------------------------

 -------
 TiO 3/\
 -------
 Symbolic Z-matrix:
 Charge =  0 Multiplicity = 3

                         Standard orientation:
 ---------------------------------------------------------------------
 Center     Atomic      Atomic             Coordinates (Angstroms)
 Number     Number       Type             X           Y           Z
 ---------------------------------------------------------------------
      1         22           0        0.000000    0.000000    0.432059
      2          8           0        0.000000    0.000000   -1.188161
 ---------------------------------------------------------------------

 SCF Done:  E(ROHF) =  -923.320982312     A.U. after   18 cycles
 E2 =    -0.3946448211D+00 EUMP2 =    -0.92371562713308D+03
 E2(CBS)=      -0.397774 CBS-Int=       0.001458 OIii=       1.584876

 Unable to determine electronic state:  an orbital has unidentified symmetry.
 Alpha  occ. eigenvalues -- -183.32267 -21.49452 -20.49205 -17.86217 -17.86217
 Alpha  occ. eigenvalues --  -17.86071  -2.95578  -1.89494  -1.89494  -1.88471
 Alpha  occ. eigenvalues --   -1.14937  -0.46556  -0.46162  -0.44694  -0.44694
 Alpha  occ. eigenvalues --   -0.26289
 Alpha virt. eigenvalues --    0.00410   0.00410   0.01955   0.02819   0.03838
 Alpha virt. eigenvalues --    0.03932   0.04349   0.04349   0.04740   0.06348
 Alpha virt. eigenvalues --    0.06348   0.06585   0.09404   0.12947   0.13406

 Mulliken atomic charges:
              1
     1  Ti   0.560283
     2  O   -0.560283
 Sum of Mulliken atomic charges =   0.00000

 Dipole moment (field-independent basis, Debye):
    X=              0.0000    Y=              0.0000    Z=              4.2398  Tot=              4.2398
 Quadrupole moment (field-independent basis, Debye-Ang):
   XX=            -21.9844   YY=            -21.9844   ZZ=            -29.8420
   XY=              0.0000   XZ=              0.0000   YZ=              0.0000

 Normal termination of Gaussian 09 at Mon Oct 21 22:18:53 2013.
