 Gaussian 09, Revision A.02,
 Gaussian 09:  EM64L-G09RevA.02 11-Jun-2009

 ----------------------------------------------------------------------
 # ROMP2 Gen GFinput Int=NoBasisTransform Int(Grid=Ultrafine) IOp(3/32=
 2,5/6=10,8/11=1,9/33=1) Maxdisk=128GB CBSextrapolate(Nmin=20,MinPop) S
 CF=Symm Guess=Read
 ----------------------------------------------------------------------

 -------
 VCl 5/\
 -------
 Symbolic Z-matrix:
 Charge =  0 Multiplicity = 5

                         Standard orientation:
 ---------------------------------------------------------------------
 Center     Atomic      Atomic             Coordinates (Angstroms)
 Number     Number       Type             X           Y           Z
 ---------------------------------------------------------------------
      1         23           0        0.000000    0.000000    0.940861
      2         17           0        0.000000    0.000000   -1.272929
 ---------------------------------------------------------------------

 SCF Done:  E(ROHF) =  -1402.50578257     A.U. after   22 cycles
 E2 =    -0.2890876968D+00 EUMP2 =    -0.14027948702622D+04
 E2(CBS)=      -0.297170 CBS-Int=       0.003738 OIii=       1.576374

 Unable to determine electronic state:  an orbital has unidentified symmetry.
 Alpha  occ. eigenvalues -- -201.50548-104.77113 -23.90650 -20.05517 -20.05517
 Alpha  occ. eigenvalues --  -20.05451 -10.49879  -7.96550  -7.96495  -7.96495
 Alpha  occ. eigenvalues --   -3.29265  -2.15775  -2.15488  -2.15488  -1.02822
 Alpha  occ. eigenvalues --   -0.52983  -0.52983  -0.52042  -0.47536  -0.41017
 Alpha  occ. eigenvalues --   -0.41017  -0.26722
 Alpha virt. eigenvalues --    0.00859   0.03672   0.03672   0.04733   0.05018
 Alpha virt. eigenvalues --    0.08461   0.11829   0.13115   0.14776   0.14776
 Alpha virt. eigenvalues --    0.17330   0.17523   0.17523   0.17597   0.19695

 Mulliken atomic charges:
              1
     1  V    0.494789
     2  Cl  -0.494789
 Sum of Mulliken atomic charges =   0.00000

 Dipole moment (field-independent basis, Debye):
    X=              0.0000    Y=              0.0000    Z=              3.5022  Tot=              3.5022
 Quadrupole moment (field-independent basis, Debye-Ang):
   XX=            -29.5183   YY=            -29.5183   ZZ=            -35.2453
   XY=              0.0000   XZ=              0.0000   YZ=              0.0000

 Normal termination of Gaussian 09 at Sun Nov  3 11:25:44 2013.
