 Gaussian 09, Revision A.02,
 Gaussian 09:  EM64L-G09RevA.02 11-Jun-2009

 ----------------------------------------------------------------------
 # ROMP2 Gen GFinput Int=NoBasisTransform Int(Grid=Ultrafine) IOp(3/32=
 2,5/6=10,8/11=1,9/33=1) Maxdisk=128GB CBSextrapolate(Nmin=25,MinPop) S
 CF=Symm Guess=Read
 ----------------------------------------------------------------------

 -------
 VCl 5/\
 -------
 Symbolic Z-matrix:
 Charge =  0 Multiplicity = 5

                         Standard orientation:
 ---------------------------------------------------------------------
 Center     Atomic      Atomic             Coordinates (Angstroms)
 Number     Number       Type             X           Y           Z
 ---------------------------------------------------------------------
      1         23           0        0.000000    0.000000    0.940861
      2         17           0        0.000000    0.000000   -1.272929
 ---------------------------------------------------------------------

 SCF Done:  E(ROHF) =  -1402.50592970     A.U. after   25 cycles
 E2 =    -0.2916554132D+00 EUMP2 =    -0.14027975851105D+04
 E2(CBS)=      -0.296936 CBS-Int=       0.002555 OIii=       1.490722

 Unable to determine electronic state:  an orbital has unidentified symmetry.
 Alpha  occ. eigenvalues -- -201.50581-104.77135 -23.90681 -20.05549 -20.05549
 Alpha  occ. eigenvalues --  -20.05484 -10.49913  -7.96583  -7.96530  -7.96530
 Alpha  occ. eigenvalues --   -3.29294  -2.15803  -2.15519  -2.15519  -1.02849
 Alpha  occ. eigenvalues --   -0.53012  -0.53012  -0.52073  -0.47563  -0.41042
 Alpha  occ. eigenvalues --   -0.41042  -0.26728
 Alpha virt. eigenvalues --    0.01480   0.01480   0.02745   0.03018   0.04352
 Alpha virt. eigenvalues --    0.04520   0.04988   0.04988   0.05222   0.08185
 Alpha virt. eigenvalues --    0.08185   0.08201   0.09385   0.14738   0.15246

 Mulliken atomic charges:
              1
     1  V    0.435868
     2  Cl  -0.435868
 Sum of Mulliken atomic charges =   0.00000

 Dipole moment (field-independent basis, Debye):
    X=              0.0000    Y=              0.0000    Z=              3.4652  Tot=              3.4652
 Quadrupole moment (field-independent basis, Debye-Ang):
   XX=            -29.5565   YY=            -29.5565   ZZ=            -35.3077
   XY=              0.0000   XZ=              0.0000   YZ=              0.0000

 Normal termination of Gaussian 09 at Sat Nov  2 20:52:42 2013.
