 Gaussian 09, Revision A.02,
 Gaussian 09:  EM64L-G09RevA.02 11-Jun-2009

 ----------------------------------------------------------------------
 # ROMP2 Gen GFinput Int=NoBasisTransform Int(Grid=Ultrafine) IOp(3/32=
 2,5/6=10,8/11=1,9/33=1) Maxdisk=128GB CBSextrapolate(Nmin=25,MinPop) S
 CF=Symm Guess=Read
 ----------------------------------------------------------------------

 --------
 VO+ 3Sg-
 --------
 Symbolic Z-matrix:
 Charge =  1 Multiplicity = 3

                         Standard orientation:
 ---------------------------------------------------------------------
 Center     Atomic      Atomic             Coordinates (Angstroms)
 Number     Number       Type             X           Y           Z
 ---------------------------------------------------------------------
      1         23           0        0.000000    0.000000    0.404129
      2          8           0        0.000000    0.000000   -1.161871
 ---------------------------------------------------------------------

 SCF Done:  E(ROHF) =  -1017.49711233     A.U. after   19 cycles
 E2 =    -0.4561806731D+00 EUMP2 =    -0.10179532929990D+04
 E2(CBS)=      -0.459467 CBS-Int=       0.001528 OIii=       1.560067

 The electronic state is 3-SG.
 Alpha  occ. eigenvalues -- -201.81684 -24.20959 -20.76692 -20.35964 -20.35964
 Alpha  occ. eigenvalues --  -20.35841  -3.54719  -2.43197  -2.43197  -2.36866
 Alpha  occ. eigenvalues --   -1.41928  -0.75384  -0.75384  -0.73403  -0.71096
 Alpha  occ. eigenvalues --   -0.71096
 Alpha virt. eigenvalues --   -0.24582  -0.16633  -0.16633  -0.15794  -0.08087
 Alpha virt. eigenvalues --   -0.08026  -0.08026  -0.06586  -0.05727  -0.05727
 Alpha virt. eigenvalues --   -0.05002  -0.05002  -0.04141  -0.02307  -0.02307

 Mulliken atomic charges:
              1
     1  V    1.624740
     2  O   -0.624740
 Sum of Mulliken atomic charges =   1.00000

 Dipole moment (field-independent basis, Debye):
    X=              0.0000    Y=              0.0000    Z=              7.4782  Tot=              7.4782
 Quadrupole moment (field-independent basis, Debye-Ang):
   XX=            -14.9073   YY=            -14.9073   ZZ=            -15.4287
   XY=              0.0000   XZ=              0.0000   YZ=              0.0000

 Normal termination of Gaussian 09 at Tue Oct 29 22:36:37 2013.
