 Gaussian 09, Revision A.02,
 Gaussian 09:  EM64L-G09RevA.02 11-Jun-2009

 ----------------------------------------------------------------------
 # ROMP2 Gen GFinput Int=NoBasisTransform Int(Grid=Ultrafine) IOp(3/32=
 2,5/6=10,8/11=1,9/33=1) Maxdisk=128GB CBSextrapolate(Nmin=25,MinPop) S
 CF=(Symm,MaxCycle=500) Guess=Read
 ----------------------------------------------------------------------

 --------
 VO- 3Sg-
 --------
 Symbolic Z-matrix:
 Charge = -1 Multiplicity = 3

                         Standard orientation:
 ---------------------------------------------------------------------
 Center     Atomic      Atomic             Coordinates (Angstroms)
 Number     Number       Type             X           Y           Z
 ---------------------------------------------------------------------
      1         23           0        0.000000    0.000000    0.416774
      2          8           0        0.000000    0.000000   -1.198226
 ---------------------------------------------------------------------

 SCF Done:  E(ROHF) =  -1017.76701646     A.U. after   22 cycles
 E2 =    -0.4614747546D+00 EUMP2 =    -0.10182284912138D+04
 E2(CBS)=      -0.465732 CBS-Int=       0.002247 OIii=       1.659489

 The electronic state is 3-SG.
 Alpha  occ. eigenvalues -- -201.36733 -23.77579 -20.31963 -19.92351 -19.92351
 Alpha  occ. eigenvalues --  -19.92057  -3.10938  -1.98628  -1.98628  -1.91802
 Alpha  occ. eigenvalues --   -0.99205  -0.30759  -0.30745  -0.30745  -0.27467
 Alpha  occ. eigenvalues --   -0.27467  -0.05026
 Alpha virt. eigenvalues --    0.12230   0.13503   0.13569   0.13569   0.13734
 Alpha virt. eigenvalues --    0.13734   0.14165   0.14165   0.15309   0.22970
 Alpha virt. eigenvalues --    0.22970   0.23217   0.24907   0.27744   0.27744

 Mulliken atomic charges:
              1
     1  V    0.372128
     2  O   -1.372128
 Sum of Mulliken atomic charges =  -1.00000

 Dipole moment (field-independent basis, Debye):
    X=              0.0000    Y=              0.0000    Z=             -1.4538  Tot=              1.4538
 Quadrupole moment (field-independent basis, Debye-Ang):
   XX=            -35.8972   YY=            -35.8972   ZZ=            -48.4334
   XY=              0.0000   XZ=              0.0000   YZ=              0.0000

 Normal termination of Gaussian 09 at Thu Oct 31 05:26:54 2013.
