 Gaussian 09, Revision A.02,
 Gaussian 09:  EM64L-G09RevA.02 11-Jun-2009

 ----------------------------------------------------------------------
 # ROMP2 Gen GFinput Int=NoBasisTransform Int(Grid=Ultrafine) IOp(3/32=
 2,5/6=10,8/11=1,9/33=1) Maxdisk=128GB CBSextrapolate(Nmin=25,MinPop) S
 CF=Symm Guess=Read
 ----------------------------------------------------------------------

 -------
 VO 4Sg-
 -------
 Symbolic Z-matrix:
 Charge =  0 Multiplicity = 4

                         Standard orientation:
 ---------------------------------------------------------------------
 Center     Atomic      Atomic             Coordinates (Angstroms)
 Number     Number       Type             X           Y           Z
 ---------------------------------------------------------------------
      1         23           0        0.000000    0.000000    0.410147
      2          8           0        0.000000    0.000000   -1.179173
 ---------------------------------------------------------------------

 SCF Done:  E(ROHF) =  -1017.75682945     A.U. after   21 cycles
 E2 =    -0.4433514521D+00 EUMP2 =    -0.10182001808991D+04
 E2(CBS)=      -0.446750 CBS-Int=       0.001539 OIii=       1.595638

 The electronic state is 4-SG.
 Alpha  occ. eigenvalues -- -201.55331 -23.95799 -20.50578 -20.10545 -20.10545
 Alpha  occ. eigenvalues --  -20.10254  -3.29823  -2.17301  -2.17301  -2.11549
 Alpha  occ. eigenvalues --   -1.17326  -0.49476  -0.49476  -0.49191  -0.46086
 Alpha  occ. eigenvalues --   -0.46086  -0.28016
 Alpha virt. eigenvalues --    0.00761   0.00761   0.01632   0.03070   0.04628
 Alpha virt. eigenvalues --    0.04628   0.04865   0.04865   0.05157   0.06928
 Alpha virt. eigenvalues --    0.07202   0.07202   0.12591   0.15848   0.15848

 Mulliken atomic charges:
              1
     1  V    0.929888
     2  O   -0.929888
 Sum of Mulliken atomic charges =   0.00000

 Dipole moment (field-independent basis, Debye):
    X=              0.0000    Y=              0.0000    Z=              4.4939  Tot=              4.4939
 Quadrupole moment (field-independent basis, Debye-Ang):
   XX=            -21.4520   YY=            -21.4520   ZZ=            -26.6048
   XY=              0.0000   XZ=              0.0000   YZ=              0.0000

 Normal termination of Gaussian 09 at Wed Oct 30 11:09:08 2013.
