 ----------------------------------------------------------------------
 # ROMP2(RW) Gen GFinput Int=NoBasisTransform Int(Grid=Ultrafine) IOp(3
 /32=2,5/6=10,8/11=1,9/33=1) Maxdisk=128GB CBSextrapolate(Nmin=25,MinPo
 p)
 ----------------------------------------------------------------------

 99/5=1,9=1/99;
 ---
 Xe2
 ---
 Charge =  0 Multiplicity = 1

                         Standard orientation:
 ---------------------------------------------------------------------
 Center     Atomic      Atomic             Coordinates (Angstroms)
 Number     Number       Type             X           Y           Z
 ---------------------------------------------------------------------
      1         54           0        0.000000    0.000000    2.181350
      2         54           0        0.000000    0.000000   -2.181350
 ---------------------------------------------------------------------

 SCF Done:  E(ROHF) =  -14464.2756415     A.U. after   14 cycles
 E2 =    -0.3746615573D+00 EUMP2 =    -0.14464650303048D+05
 E2(CBS)=      -0.387286 CBS-Int=       0.006455 OIii=       2.941563

 The electronic state is 1-SGG.
 Alpha  occ. eigenvalues -- ********************-189.33963-189.33963-177.78196
 Alpha  occ. eigenvalues -- -177.78196-177.78196-177.78196-177.78195-177.78195
 Alpha  occ. eigenvalues --  -40.17520 -40.17520 -35.22120 -35.22120 -35.22120
 Alpha  occ. eigenvalues --  -35.22120 -35.22118 -35.22118 -26.11841 -26.11841
 Alpha  occ. eigenvalues --  -26.11841 -26.11841 -26.11839 -26.11839 -26.11839
 Alpha  occ. eigenvalues --  -26.11839 -26.11838 -26.11838  -7.85587  -7.85587
 Alpha  occ. eigenvalues --   -6.00792  -6.00792  -6.00792  -6.00792  -6.00789
 Alpha  occ. eigenvalues --   -6.00789  -2.77749  -2.77749  -2.77749  -2.77749
 Alpha  occ. eigenvalues --   -2.77745  -2.77745  -2.77744  -2.77744  -2.77743
 Alpha  occ. eigenvalues --   -2.77743  -0.94574  -0.94290  -0.46863  -0.45879
 Alpha  occ. eigenvalues --   -0.45879  -0.45547  -0.45547  -0.44600
 Alpha virt. eigenvalues --    0.05496   0.06889   0.06889   0.08019   0.08775
 Alpha virt. eigenvalues --    0.08775   0.09151   0.14563   0.15741   0.15741
 Alpha virt. eigenvalues --    0.16007   0.16007   0.18554   0.18554   0.19642

 Mulliken charges and spin densities:
              1          2
     1  Xe   0.000000   0.000000
     2  Xe   0.000000   0.000000
 Sum of Mulliken charges =   0.00000 spin densities =   0.000000

 Dipole moment (field-independent basis, Debye):
    X=              0.0000    Y=              0.0000    Z=              0.0000  Tot=              0.0000
 Quadrupole moment (field-independent basis, Debye-Ang):
   XX=            -56.1674   YY=            -56.1674   ZZ=            -56.3461
   XY=              0.0000   XZ=              0.0000   YZ=              0.0000

 Normal termination of Gaussian DV at Sun Jun 16 08:25:07 2013.
