 ----------------------------------------------------------------------
 # ROMP2(RW) Gen GFinput Int=NoBasisTransform Int(Grid=Ultrafine) IOp(3
 /32=2,5/6=10,8/11=1,9/33=1) Maxdisk=128GB CBSextrapolate(Nmin=15,MinPo
 p)
 ----------------------------------------------------------------------

 99/5=1,9=1/99;
 ---
 Xe2
 ---
 Charge =  0 Multiplicity = 1

                         Standard orientation:
 ---------------------------------------------------------------------
 Center     Atomic      Atomic             Coordinates (Angstroms)
 Number     Number       Type             X           Y           Z
 ---------------------------------------------------------------------
      1         54           0        0.000000    0.000000    2.181350
      2         54           0        0.000000    0.000000   -2.181350
 ---------------------------------------------------------------------

 SCF Done:  E(ROHF) =  -14464.2750843     A.U. after   13 cycles
 E2 =    -0.3595994252D+00 EUMP2 =    -0.14464634683716D+05
 E2(CBS)=      -0.388173 CBS-Int=       0.012751 OIii=       3.471595

 The electronic state is 1-SGG.
 Alpha  occ. eigenvalues -- ********************-189.33975-189.33975-177.78207
 Alpha  occ. eigenvalues -- -177.78207-177.78207-177.78207-177.78206-177.78206
 Alpha  occ. eigenvalues --  -40.17530 -40.17530 -35.22130 -35.22130 -35.22130
 Alpha  occ. eigenvalues --  -35.22130 -35.22128 -35.22128 -26.11852 -26.11852
 Alpha  occ. eigenvalues --  -26.11852 -26.11852 -26.11849 -26.11849 -26.11849
 Alpha  occ. eigenvalues --  -26.11849 -26.11848 -26.11848  -7.85597  -7.85597
 Alpha  occ. eigenvalues --   -6.00803  -6.00803  -6.00803  -6.00803  -6.00799
 Alpha  occ. eigenvalues --   -6.00799  -2.77760  -2.77760  -2.77760  -2.77760
 Alpha  occ. eigenvalues --   -2.77755  -2.77755  -2.77754  -2.77754  -2.77753
 Alpha  occ. eigenvalues --   -2.77753  -0.94581  -0.94298  -0.46871  -0.45887
 Alpha  occ. eigenvalues --   -0.45887  -0.45555  -0.45555  -0.44608
 Alpha virt. eigenvalues --    0.06832   0.08031   0.08031   0.09414   0.10143
 Alpha virt. eigenvalues --    0.10143   0.10459   0.16895   0.16900   0.16900
 Alpha virt. eigenvalues --    0.17618   0.17618   0.19992   0.19992   0.20505

 Mulliken charges and spin densities:
              1          2
     1  Xe   0.000000   0.000000
     2  Xe   0.000000   0.000000
 Sum of Mulliken charges =   0.00000 spin densities =   0.000000

 Dipole moment (field-independent basis, Debye):
    X=              0.0000    Y=              0.0000    Z=              0.0000  Tot=              0.0000
 Quadrupole moment (field-independent basis, Debye-Ang):
   XX=            -56.1799   YY=            -56.1799   ZZ=            -56.3458
   XY=              0.0000   XZ=              0.0000   YZ=              0.0000

 Normal termination of Gaussian DV at Sat Jun 15 14:35:42 2013.
