 ----------------------------------------------------------------------
 # ROMP2(RW) Gen GFinput Int=NoBasisTransform Int(Grid=Ultrafine) IOp(3
 /32=2,5/6=10,8/11=1,9/33=1) Maxdisk=128GB CBSextrapolate(Nmin=20,MinPo
 p)
 ----------------------------------------------------------------------

 99/5=1,9=1/99;
 ---
 Xe2
 ---
 Charge =  0 Multiplicity = 1

                         Standard orientation:
 ---------------------------------------------------------------------
 Center     Atomic      Atomic             Coordinates (Angstroms)
 Number     Number       Type             X           Y           Z
 ---------------------------------------------------------------------
      1         54           0        0.000000    0.000000    2.181350
      2         54           0        0.000000    0.000000   -2.181350
 ---------------------------------------------------------------------

 SCF Done:  E(ROHF) =  -14464.2755151     A.U. after   13 cycles
 E2 =    -0.3691766242D+00 EUMP2 =    -0.14464644691728D+05
 E2(CBS)=      -0.387793 CBS-Int=       0.009064 OIii=       3.178298

 The electronic state is 1-SGG.
 Alpha  occ. eigenvalues -- ********************-189.33955-189.33955-177.78187
 Alpha  occ. eigenvalues -- -177.78187-177.78187-177.78187-177.78186-177.78186
 Alpha  occ. eigenvalues --  -40.17518 -40.17518 -35.22118 -35.22118 -35.22118
 Alpha  occ. eigenvalues --  -35.22118 -35.22116 -35.22116 -26.11838 -26.11838
 Alpha  occ. eigenvalues --  -26.11838 -26.11838 -26.11836 -26.11836 -26.11836
 Alpha  occ. eigenvalues --  -26.11836 -26.11835 -26.11835  -7.85588  -7.85588
 Alpha  occ. eigenvalues --   -6.00793  -6.00793  -6.00793  -6.00793  -6.00790
 Alpha  occ. eigenvalues --   -6.00790  -2.77750  -2.77750  -2.77750  -2.77750
 Alpha  occ. eigenvalues --   -2.77745  -2.77745  -2.77745  -2.77745  -2.77744
 Alpha  occ. eigenvalues --   -2.77744  -0.94575  -0.94291  -0.46864  -0.45880
 Alpha  occ. eigenvalues --   -0.45880  -0.45548  -0.45548  -0.44601
 Alpha virt. eigenvalues --    0.05822   0.07343   0.07343   0.08617   0.09308
 Alpha virt. eigenvalues --    0.09308   0.09714   0.15815   0.16053   0.16053
 Alpha virt. eigenvalues --    0.16425   0.16425   0.18932   0.18932   0.19884

 Mulliken charges and spin densities:
              1          2
     1  Xe   0.000000   0.000000
     2  Xe   0.000000   0.000000
 Sum of Mulliken charges =   0.00000 spin densities =   0.000000

 Dipole moment (field-independent basis, Debye):
    X=              0.0000    Y=              0.0000    Z=              0.0000  Tot=              0.0000
 Quadrupole moment (field-independent basis, Debye-Ang):
   XX=            -56.1684   YY=            -56.1684   ZZ=            -56.3467
   XY=              0.0000   XZ=              0.0000   YZ=              0.0000

 Normal termination of Gaussian DV at Sat Jun 15 17:16:00 2013.
