 Gaussian 09, Revision A.02,
 Gaussian 09:  EM64L-G09RevA.02 11-Jun-2009

 ----------------------------------------------------------------------
 #P ROMP2(RW) Gen GFinput Int=NoBasisTransform Int(Grid=Ultrafine) IOp(
 3/32=2,5/6=10,8/11=1,9/33=1) Maxdisk=128GB CBSextrapolate(Nmin=15,MinP
 op) Guess=Read
 ----------------------------------------------------------------------

 ------------
 Zn...Zn 1Sg+
 ------------
 Symbolic Z-matrix:
 Charge =  0 Multiplicity = 1

                         Standard orientation:
 ---------------------------------------------------------------------
 Center     Atomic      Atomic             Coordinates (Angstroms)
 Number     Number       Type             X           Y           Z
 ---------------------------------------------------------------------
      1         30           0        0.000000    0.000000    1.923500
      2         30           0        0.000000    0.000000   -1.923500
 ---------------------------------------------------------------------

 SCF Done:  E(ROHF) =  -3555.69376205     A.U. after   12 cycles
 E2 =    -0.1155407434D+01 EUMP2 =    -0.35568491694794D+04
 E2(CBS)=      -1.183549 CBS-Int=       0.008811 OIii=       6.819581

 Unable to determine electronic state:  an orbital has unidentified symmetry.
 Alpha  occ. eigenvalues -- -353.30446-353.30446 -44.36183 -44.36183 -38.92494
 Alpha  occ. eigenvalues --  -38.92494 -38.92494 -38.92494 -38.92493 -38.92493
 Alpha  occ. eigenvalues --   -5.63792  -5.63792  -3.83947  -3.83947  -3.83947
 Alpha  occ. eigenvalues --   -3.83947  -3.83947  -3.83947  -0.78318  -0.78278
 Alpha  occ. eigenvalues --   -0.78278  -0.78267  -0.78267  -0.78263  -0.78263
 Alpha  occ. eigenvalues --   -0.78241  -0.78241  -0.78212  -0.31627  -0.27094
 Alpha virt. eigenvalues --    0.04239   0.05190   0.05501   0.05501   0.06280
 Alpha virt. eigenvalues --    0.09108   0.09108   0.15874   0.23374   0.23374
 Alpha virt. eigenvalues --    0.23731   0.23731   0.25993   0.27334   0.27334

 Mulliken atomic charges:
              1
     1  Zn   0.000000
     2  Zn   0.000000
 Sum of Mulliken atomic charges =   0.00000

 Dipole moment (field-independent basis, Debye):
    X=              0.0000    Y=              0.0000    Z=              0.0000  Tot=              0.0000
 Quadrupole moment (field-independent basis, Debye-Ang):
   XX=            -31.2083   YY=            -31.2083   ZZ=            -32.4259
   XY=              0.0000   XZ=              0.0000   YZ=              0.0000

 Normal termination of Gaussian 09 at Thu Jul 25 17:21:46 2013.
