 ----------------------------------------------------------------------
 # ROMP2(RW) Gen GFinput Int=NoBasisTransform Int(Grid=Ultrafine) IOp(3
 /32=2,5/6=10,8/11=1,9/33=1) Maxdisk=128GB CBSextrapolate(Nmin=20,MinPo
 p)
 ----------------------------------------------------------------------

 99/5=1,9=1/99;
 ------------
 Zn...Zn 1Sg+
 ------------
 Charge =  0 Multiplicity = 1

                         Standard orientation:
 ---------------------------------------------------------------------
 Center     Atomic      Atomic             Coordinates (Angstroms)
 Number     Number       Type             X           Y           Z
 ---------------------------------------------------------------------
      1         30           0        0.000000    0.000000    1.923500
      2         30           0        0.000000    0.000000   -1.923500
 ---------------------------------------------------------------------

 SCF Done:  E(ROHF) =  -3555.69403870     A.U. after   15 cycles
 E2 =    -0.1169186339D+01 EUMP2 =    -0.35568632250396D+04
 E2(CBS)=      -1.189462 CBS-Int=       0.007018 OIii=       6.814442

 The electronic state is 1-SGG.
 Alpha  occ. eigenvalues -- -353.30448-353.30448 -44.36173 -44.36173 -38.92485
 Alpha  occ. eigenvalues --  -38.92485 -38.92485 -38.92485 -38.92484 -38.92484
 Alpha  occ. eigenvalues --   -5.63780  -5.63780  -3.83935  -3.83935  -3.83935
 Alpha  occ. eigenvalues --   -3.83935  -3.83935  -3.83935  -0.78306  -0.78265
 Alpha  occ. eigenvalues --   -0.78265  -0.78254  -0.78254  -0.78251  -0.78251
 Alpha  occ. eigenvalues --   -0.78229  -0.78229  -0.78200  -0.31622  -0.27095
 Alpha virt. eigenvalues --    0.03776   0.04454   0.04454   0.05212   0.05909
 Alpha virt. eigenvalues --    0.07942   0.07942   0.13904   0.29719   0.31750
 Alpha virt. eigenvalues --    0.31750   0.32761   0.32761   0.35556   0.46596

 Mulliken charges and spin densities:
              1          2
     1  Zn   0.000000   0.000000
     2  Zn   0.000000   0.000000
 Sum of Mulliken charges =   0.00000 spin densities =   0.000000

 Dipole moment (field-independent basis, Debye):
    X=              0.0000    Y=              0.0000    Z=              0.0000  Tot=              0.0000
 Quadrupole moment (field-independent basis, Debye-Ang):
   XX=            -31.1962   YY=            -31.1962   ZZ=            -32.4264
   XY=              0.0000   XZ=              0.0000   YZ=              0.0000

 Normal termination of Gaussian DV at Tue Mar  5 03:54:45 2013.
