 Gaussian 09, Revision A.02,
 Gaussian 09:  EM64L-G09RevA.02 11-Jun-2009

 ----------------------------------------------------------------------
 #P ROMP2(RW) Gen GFinput Int=NoBasisTransform Int(Grid=Ultrafine) IOp(
 3/32=2,5/6=10,8/11=1,9/33=1) Maxdisk=128GB CBSextrapolate(Nmin=20,MinP
 op) Guess=Read
 ----------------------------------------------------------------------

 ------------
 Zn...Zn 1Sg+
 ------------
 Symbolic Z-matrix:
 Charge =  0 Multiplicity = 1

                         Standard orientation:
 ---------------------------------------------------------------------
 Center     Atomic      Atomic             Coordinates (Angstroms)
 Number     Number       Type             X           Y           Z
 ---------------------------------------------------------------------
      1         30           0        0.000000    0.000000    1.923500
      2         30           0        0.000000    0.000000   -1.923500
 ---------------------------------------------------------------------

 SCF Done:  E(ROHF) =  -3555.69407221     A.U. after   10 cycles
 E2 =    -0.1173817144D+01 EUMP2 =    -0.35568678893568D+04
 E2(CBS)=      -1.190633 CBS-Int=       0.005759 OIii=       6.588507

 Unable to determine electronic state:  an orbital has unidentified symmetry.
 Alpha  occ. eigenvalues -- -353.30453-353.30453 -44.36178 -44.36178 -38.92490
 Alpha  occ. eigenvalues --  -38.92490 -38.92490 -38.92490 -38.92489 -38.92489
 Alpha  occ. eigenvalues --   -5.63785  -5.63785  -3.83940  -3.83940  -3.83940
 Alpha  occ. eigenvalues --   -3.83940  -3.83940  -3.83939  -0.78311  -0.78271
 Alpha  occ. eigenvalues --   -0.78271  -0.78259  -0.78259  -0.78256  -0.78256
 Alpha  occ. eigenvalues --   -0.78234  -0.78234  -0.78205  -0.31625  -0.27092
 Alpha virt. eigenvalues --    0.03630   0.04056   0.04056   0.04732   0.05848
 Alpha virt. eigenvalues --    0.07529   0.07529   0.13430   0.20019   0.21046
 Alpha virt. eigenvalues --    0.21046   0.21104   0.21104   0.22950   0.22950

 Mulliken atomic charges:
              1
     1  Zn   0.000000
     2  Zn   0.000000
 Sum of Mulliken atomic charges =   0.00000

 Dipole moment (field-independent basis, Debye):
    X=              0.0000    Y=              0.0000    Z=              0.0000  Tot=              0.0000
 Quadrupole moment (field-independent basis, Debye-Ang):
   XX=            -31.1993   YY=            -31.1993   ZZ=            -32.4296
   XY=              0.0000   XZ=              0.0000   YZ=              0.0000

 Normal termination of Gaussian 09 at Fri Jul 26 11:53:11 2013.
