 Gaussian 09, Revision A.02,
 Gaussian 09:  EM64L-G09RevA.02 11-Jun-2009

 ----------------------------------------------------------------------
 #P ROMP2(RW) Gen GFinput Int=NoBasisTransform Int(Grid=Ultrafine) IOp(
 3/32=2,5/6=10,8/11=1,9/33=1) Maxdisk=128GB CBSextrapolate(Nmin=25,MinP
 op)
 ----------------------------------------------------------------------

 --------
 ZnF 2Sg+
 --------
 Symbolic Z-matrix:
 Charge =  0 Multiplicity = 2

                         Standard orientation:
 ---------------------------------------------------------------------
 Center     Atomic      Atomic             Coordinates (Angstroms)
 Number     Number       Type             X           Y           Z
 ---------------------------------------------------------------------
      1         30           0        0.000000    0.000000    0.408000
      2          9           0        0.000000    0.000000   -1.360000
 ---------------------------------------------------------------------

 SCF Done:  E(ROHF) =  -1877.34480951     A.U. after   23 cycles
 E2 =    -0.8780397499D+00 EUMP2 =    -0.18782228492573D+04
 E2(CBS)=      -0.886511 CBS-Int=       0.002780 OIii=       5.108297

 The electronic state is 2-SG.
 Alpha  occ. eigenvalues -- -353.34873 -44.40442 -38.96905 -38.96905 -38.96646
 Alpha  occ. eigenvalues --  -26.19001  -5.68706  -3.89146  -3.89146  -3.88834
 Alpha  occ. eigenvalues --   -1.46643  -0.83922  -0.83758  -0.83758  -0.83690
 Alpha  occ. eigenvalues --   -0.83690  -0.57817  -0.54966  -0.54966  -0.32734
 Alpha virt. eigenvalues --    0.03023   0.03523   0.03523   0.08206   0.14514
 Alpha virt. eigenvalues --    0.15789   0.15789   0.17488   0.18066   0.18066
 Alpha virt. eigenvalues --    0.19142   0.19142   0.24359   0.26238   0.26238

 Mulliken atomic charges:
              1
     1  Zn   0.961894
     2  F   -0.961894
 Sum of Mulliken atomic charges =   0.00000

 Dipole moment (field-independent basis, Debye):
    X=              0.0000    Y=              0.0000    Z=              3.1990  Tot=              3.1990
 Quadrupole moment (field-independent basis, Debye-Ang):
   XX=            -17.4267   YY=            -17.4267   ZZ=            -25.8771
   XY=              0.0000   XZ=              0.0000   YZ=              0.0000

 Normal termination of Gaussian 09 at Sun Jul 21 04:07:29 2013.
