 Gaussian 09, Revision A.02,
 Gaussian 09:  EM64L-G09RevA.02 11-Jun-2009

 ----------------------------------------------------------------------
 # ROCCSD(T,RW) Gen GFinput Int=NoBasisTransform Int(Grid=Ultrafine) IO
 p(3/32=2,5/6=10,8/11=1,9/33=1) Maxdisk=128GB Opt=(Tight,Z-Matrix)
 ----------------------------------------------------------------------

 --------
 ZnH 2Sg+
 --------
 Symbolic Z-matrix:
 Charge =  0 Multiplicity = 2

 SCF Done:  E(ROHF) =  -1778.37638918     A.U. after   18 cycles
 E2 =    -0.5550482489D+00 EUMP2 =    -0.17789314374251D+04
 CCSD(T)= -0.17789063567D+04
 SCF Done:  E(ROHF) =  -1778.37638984     A.U. after   10 cycles
 E2 =    -0.5550464310D+00 EUMP2 =    -0.17789314362692D+04
 CCSD(T)= -0.17789063567D+04
 SCF Done:  E(ROHF) =  -1778.37638851     A.U. after   11 cycles
 E2 =    -0.5550500671D+00 EUMP2 =    -0.17789314385786D+04
 CCSD(T)= -0.17789063567D+04
 SCF Done:  E(ROHF) =  -1778.37639452     A.U. after   11 cycles
 E2 =    -0.5550333509D+00 EUMP2 =    -0.17789314278753D+04
 CCSD(T)= -0.17789063568D+04
 SCF Done:  E(ROHF) =  -1778.37639516     A.U. after   10 cycles
 E2 =    -0.5550315358D+00 EUMP2 =    -0.17789314266999D+04
 CCSD(T)= -0.17789063568D+04
 SCF Done:  E(ROHF) =  -1778.37639388     A.U. after   11 cycles
 E2 =    -0.5550351665D+00 EUMP2 =    -0.17789314290485D+04
 CCSD(T)= -0.17789063568D+04
 SCF Done:  E(ROHF) =  -1778.37639486     A.U. after   10 cycles
 E2 =    -0.5550323861D+00 EUMP2 =    -0.17789314272509D+04
 CCSD(T)= -0.17789063568D+04
 SCF Done:  E(ROHF) =  -1778.37639550     A.U. after   10 cycles
 E2 =    -0.5550305712D+00 EUMP2 =    -0.17789314260742D+04
 CCSD(T)= -0.17789063568D+04
 SCF Done:  E(ROHF) =  -1778.37639422     A.U. after   11 cycles
 E2 =    -0.5550342015D+00 EUMP2 =    -0.17789314284253D+04
 CCSD(T)= -0.17789063568D+04

                         Standard orientation:
 ---------------------------------------------------------------------
 Center     Atomic      Atomic             Coordinates (Angstroms)
 Number     Number       Type             X           Y           Z
 ---------------------------------------------------------------------
      1         30           0        0.000000    0.000000    0.051471
      2          1           0        0.000000    0.000000   -1.544122
 ---------------------------------------------------------------------

 The electronic state is 2-SG.
 Alpha  occ. eigenvalues -- -353.33293 -44.39101 -38.95499 -38.95499 -38.95376
 Alpha  occ. eigenvalues --   -5.66920  -3.87231  -3.87231  -3.87105  -0.81790
 Alpha  occ. eigenvalues --   -0.81790  -0.81679  -0.81285  -0.81285  -0.45231
 Alpha  occ. eigenvalues --   -0.27540
 Alpha virt. eigenvalues --    0.02142   0.06222   0.06230   0.06230   0.11253
 Alpha virt. eigenvalues --    0.19313   0.44704   0.51027   0.51027   0.54875
 Alpha virt. eigenvalues --    0.61507   0.61507   0.62602   0.80887   0.80887

 Mulliken atomic charges:
              1
     1  Zn   0.352555
     2  H   -0.352555
 Sum of Mulliken atomic charges =   0.00000

 Dipole moment (field-independent basis, Debye):
    X=              0.0000    Y=              0.0000    Z=              0.8620  Tot=              0.8620
 Quadrupole moment (field-independent basis, Debye-Ang):
   XX=            -15.0024   YY=            -15.0024   ZZ=            -21.6613
   XY=              0.0000   XZ=              0.0000   YZ=              0.0000

 1\1\GINC-C26\FOpt\ROCCSD(T)-RW\Gen\H1Zn1(2)\GPETERSSON\29-Aug-2012\1\\
 # ROCCSD(T,RW) Gen GFinput Int=NoBasisTransform Int(Grid=Ultrafine) IO
 p(3/32=2,5/6=10,8/11=1,9/33=1) Maxdisk=128GB Opt=(Tight,Z-Matrix)\\ZnH
  2Sg+\\0,2\Zn\H,1,R\\R=1.59559282\\Version=EM64L-G09RevA.02\State=2-SG
 \HF=-1778.3763949\MP2=-1778.9314273\MP3=-1778.8679538\PUHF=-1778.37639
 49\PMP2-0=-1778.9314273\MP4SDQ=-1778.8959668\CCSD=-1778.8891217\CCSD(T
 )=-1778.9063568\RMSD=8.285e-11\RMSF=9.931e-08\PG=C*V [C*(H1Zn1)]\\@

 Normal termination of Gaussian 09 at Wed Aug 29 10:42:58 2012.
