 Gaussian 09, Revision A.02,
 Gaussian 09:  EM64L-G09RevA.02 11-Jun-2009

 ----------------------------------------------------------------------
 # ROCCSD(T,RW) Gen GFinput Int=NoBasisTransform Int(Grid=Ultrafine) IO
 p(3/32=2,5/6=10,8/11=1,9/33=1) Maxdisk=128GB Opt=(Tight,Z-Matrix)
 ----------------------------------------------------------------------

 --------
 ZnH 2Sg+
 --------
 Symbolic Z-matrix:
 Charge =  0 Multiplicity = 2

 SCF Done:  E(ROHF) =  -1778.37638918     A.U. after   18 cycles
 E2 =    -0.3163772453D-01 EUMP2 =    -0.17784080269007D+04
 CCSD(T)= -0.17784182545D+04
 SCF Done:  E(ROHF) =  -1778.37638984     A.U. after   10 cycles
 E2 =    -0.3163829397D-01 EUMP2 =    -0.17784080281322D+04
 CCSD(T)= -0.17784182564D+04
 SCF Done:  E(ROHF) =  -1778.37638851     A.U. after   11 cycles
 E2 =    -0.3163715505D-01 EUMP2 =    -0.17784080256665D+04
 CCSD(T)= -0.17784182527D+04
 SCF Done:  E(ROHF) =  -1778.37625467     A.U. after   15 cycles
 E2 =    -0.3201488306D-01 EUMP2 =    -0.17784082695556D+04
 CCSD(T)= -0.17784189294D+04
 SCF Done:  E(ROHF) =  -1778.37600743     A.U. after   13 cycles
 E2 =    -0.3212568256D-01 EUMP2 =    -0.17784081331135D+04
 CCSD(T)= -0.17784189303D+04
 SCF Done:  E(ROHF) =  -1778.37556014     A.U. after   14 cycles
 E2 =    -0.3226872507D-01 EUMP2 =    -0.17784078288676D+04
 CCSD(T)= -0.17784188104D+04
 SCF Done:  E(ROHF) =  -1778.37613901     A.U. after   14 cycles
 E2 =    -0.3207171886D-01 EUMP2 =    -0.17784082107315D+04
 CCSD(T)= -0.17784189404D+04
 SCF Done:  E(ROHF) =  -1778.37613775     A.U. after   10 cycles
 E2 =    -0.3207228114D-01 EUMP2 =    -0.17784082100311D+04
 CCSD(T)= -0.17784189404D+04
 SCF Done:  E(ROHF) =  -1778.37613960     A.U. after   10 cycles
 E2 =    -0.3207145503D-01 EUMP2 =    -0.17784082110593D+04
 CCSD(T)= -0.17784189404D+04
 SCF Done:  E(ROHF) =  -1778.37613834     A.U. after   10 cycles
 E2 =    -0.3207201730D-01 EUMP2 =    -0.17784082103600D+04
 CCSD(T)= -0.17784189404D+04
 SCF Done:  E(ROHF) =  -1778.37614086     A.U. after   11 cycles
 E2 =    -0.3207089272D-01 EUMP2 =    -0.17784082117563D+04
 CCSD(T)= -0.17784189404D+04
 SCF Done:  E(ROHF) =  -1778.37614003     A.U. after   10 cycles
 E2 =    -0.3207126573D-01 EUMP2 =    -0.17784082112942D+04
 CCSD(T)= -0.17784189404D+04
 SCF Done:  E(ROHF) =  -1778.37613877     A.U. after   10 cycles
 E2 =    -0.3207182801D-01 EUMP2 =    -0.17784082105957D+04
 CCSD(T)= -0.17784189404D+04
 SCF Done:  E(ROHF) =  -1778.37614129     A.U. after   11 cycles
 E2 =    -0.3207070344D-01 EUMP2 =    -0.17784082119904D+04
 CCSD(T)= -0.17784189404D+04

                         Standard orientation:
 ---------------------------------------------------------------------
 Center     Atomic      Atomic             Coordinates (Angstroms)
 Number     Number       Type             X           Y           Z
 ---------------------------------------------------------------------
      1         30           0        0.000000    0.000000    0.053442
      2          1           0        0.000000    0.000000   -1.603251
 ---------------------------------------------------------------------

 The electronic state is 2-SG.
 Alpha  occ. eigenvalues -- -353.33462 -44.39215 -38.95618 -38.95618 -38.95493
 Alpha  occ. eigenvalues --   -5.67038  -3.87369  -3.87369  -3.87192  -0.81927
 Alpha  occ. eigenvalues --   -0.81927  -0.81691  -0.81411  -0.81411  -0.44614
 Alpha  occ. eigenvalues --   -0.27726
 Alpha virt. eigenvalues --    0.02173   0.06150   0.06150   0.06158   0.11358
 Alpha virt. eigenvalues --    0.18742   0.45076   0.51025   0.51025   0.55059
 Alpha virt. eigenvalues --    0.61049   0.61049   0.61164   0.80742   0.80742

 Mulliken atomic charges:
              1
     1  Zn   0.351337
     2  H   -0.351337
 Sum of Mulliken atomic charges =   0.00000

 Dipole moment (field-independent basis, Debye):
    X=              0.0000    Y=              0.0000    Z=              1.0460  Tot=              1.0460
 Quadrupole moment (field-independent basis, Debye-Ang):
   XX=            -15.0531   YY=            -15.0531   ZZ=            -21.8675
   XY=              0.0000   XZ=              0.0000   YZ=              0.0000

 1\1\GINC-C26\FOpt\ROCCSD(T)-RW\Gen\H1Zn1(2)\GPETERSSON\26-Aug-2012\1\\
 # ROCCSD(T,RW) Gen GFinput Int=NoBasisTransform Int(Grid=Ultrafine) IO
 p(3/32=2,5/6=10,8/11=1,9/33=1) Maxdisk=128GB Opt=(Tight,Z-Matrix)\\ZnH
  2Sg+\\0,2\Zn\H,1,R\\R=1.65669269\\Version=EM64L-G09RevA.02\State=2-SG
 \HF=-1778.37614\MP2=-1778.4082113\MP3=-1778.4145897\PUHF=-1778.37614\P
 MP2-0=-1778.4082113\MP4SDQ=-1778.4166807\CCSD=-1778.4183876\CCSD(T)=-1
 778.4189404\RMSD=3.730e-11\RMSF=1.552e-06\PG=C*V [C*(H1Zn1)]\\@

 Normal termination of Gaussian 09 at Sun Aug 26 00:04:48 2012.
