 Gaussian 09, Revision A.02,
 Gaussian 09:  EM64L-G09RevA.02 11-Jun-2009

 ----------------------------------------------------------------------
 #P ROMP2(RW) Gen GFinput Int=NoBasisTransform Int(Grid=Ultrafine) IOp(
 3/32=2,5/6=10,8/11=1,9/33=1) Maxdisk=128GB CBSextrapolate(Nmin=25,MinP
 op) Guess=Read SCF(Symm,MaxCycle=512)
 ----------------------------------------------------------------------

 --------
 ZnO+ 2Pi
 --------
 Symbolic Z-matrix:
 Charge =  1 Multiplicity = 2

                         Standard orientation:
 ---------------------------------------------------------------------
 Center     Atomic      Atomic             Coordinates (Angstroms)
 Number     Number       Type             X           Y           Z
 ---------------------------------------------------------------------
      1         30           0        0.000000    0.000000    0.378737
      2          8           0        0.000000    0.000000   -1.420263
 ---------------------------------------------------------------------

 SCF Done:  E(ROHF) =  -1852.37287542     A.U. after   16 cycles
 E2 =    -0.7829088295D+00 EUMP2 =    -0.18531557842468D+04
 E2(CBS)=      -0.790217 CBS-Int=       0.002541 OIii=       4.386085

 Unable to determine electronic state:  partially filled degenerate orbitals.
 Alpha  occ. eigenvalues -- -353.67877 -44.73118 -39.29777 -39.29720 -39.29403
 Alpha  occ. eigenvalues --  -20.81311  -6.01072  -4.21821  -4.21696  -4.21577
 Alpha  occ. eigenvalues --   -1.50858  -1.16351  -1.16289  -1.16286  -1.16193
 Alpha  occ. eigenvalues --   -1.15200  -0.81367  -0.73596  -0.72355
 Alpha virt. eigenvalues --   -0.29340  -0.15536  -0.15024  -0.09108  -0.08940
 Alpha virt. eigenvalues --   -0.01468  -0.01053  -0.00268   0.00277   0.00342
 Alpha virt. eigenvalues --    0.00342   0.00663   0.03514   0.07422   0.07890

 Mulliken atomic charges:
              1
     1  Zn   1.758387
     2  O   -0.758387
 Sum of Mulliken atomic charges =   1.00000

 Dipole moment (field-independent basis, Debye):
    X=              0.0000    Y=              0.0000    Z=              6.3032  Tot=              6.3032
 Quadrupole moment (field-independent basis, Debye-Ang):
   XX=            -14.6655   YY=            -13.2826   ZZ=            -15.4262
   XY=              0.0000   XZ=              0.0000   YZ=              0.0000

 Normal termination of Gaussian 09 at Thu Jul 25 19:07:19 2013.
