 Gaussian 09, Revision A.02,
 Gaussian 09:  EM64L-G09RevA.02 11-Jun-2009

 ----------------------------------------------------------------------
 # ROMP2(RW) Gen GFinput Int=NoBasisTransform Int(Grid=Ultrafine) IOp(3
 /32=2,5/6=10,8/11=1,9/33=1) Maxdisk=128GB CBSextrapolate(Nmin=25,MinPo
 p)
 ----------------------------------------------------------------------

 --------
 ZnO- 2Sg
 --------
 Symbolic Z-matrix:
 Charge = -1 Multiplicity = 2

                         Standard orientation:
 ---------------------------------------------------------------------
 Center     Atomic      Atomic             Coordinates (Angstroms)
 Number     Number       Type             X           Y           Z
 ---------------------------------------------------------------------
      1         30           0        0.000000    0.000000    0.373789
      2          8           0        0.000000    0.000000   -1.401711
 ---------------------------------------------------------------------

 SCF Done:  E(ROHF) =  -1852.66572648     A.U. after   29 cycles
 E2 =    -0.9216353000D+00 EUMP2 =    -0.18535873617795D+04
 E2(CBS)=      -0.929798 CBS-Int=       0.002963 OIii=       4.592201

 The electronic state is 2-SG.
 Alpha  occ. eigenvalues -- -353.10104 -44.15973 -38.72437 -38.72437 -38.72202
 Alpha  occ. eigenvalues --  -20.23297  -5.43834  -3.64268  -3.64268  -3.64061
 Alpha  occ. eigenvalues --   -0.89773  -0.58787  -0.58787  -0.58677  -0.58677
 Alpha  occ. eigenvalues --   -0.57347  -0.20117  -0.13623  -0.13623  -0.08641
 Alpha virt. eigenvalues --    0.14758   0.20008   0.20008   0.22822   0.26701
 Alpha virt. eigenvalues --    0.26701   0.26737   0.34675   0.35880   0.35880
 Alpha virt. eigenvalues --    0.36054   0.36054   0.38463   0.41138   0.41138

 Mulliken atomic charges:
              1
     1  Zn   0.533105
     2  O   -1.533105
 Sum of Mulliken atomic charges =  -1.00000

 Dipole moment (field-independent basis, Debye):
    X=              0.0000    Y=              0.0000    Z=              4.9910  Tot=              4.9910
 Quadrupole moment (field-independent basis, Debye-Ang):
   XX=            -24.5775   YY=            -24.5775   ZZ=            -40.9405
   XY=              0.0000   XZ=              0.0000   YZ=              0.0000

 Normal termination of Gaussian 09 at Thu Jul 25 05:25:34 2013.
